 Entering Gaussian System, Link 0=g16
 Input=100011.gjf
 Output=100011.log
 Initial command:
 /scratch/xp2042/Softs/Gaussian16-A03-AVX2_linux64/g16/l1.exe "/state/partition1/job-13974479/Gau-1749147.inp" -scrdir="/state/partition1/job-13974479/"
 Entering Link 1 = /scratch/xp2042/Softs/Gaussian16-A03-AVX2_linux64/g16/l1.exe PID=   1749160.
  
 Copyright (c) 1988,1990,1992,1993,1995,1998,2003,2009,2016,
            Gaussian, Inc.  All Rights Reserved.
  
 This is part of the Gaussian(R) 16 program.  It is based on
 the Gaussian(R) 09 system (copyright 2009, Gaussian, Inc.),
 the Gaussian(R) 03 system (copyright 2003, Gaussian, Inc.),
 the Gaussian(R) 98 system (copyright 1998, Gaussian, Inc.),
 the Gaussian(R) 94 system (copyright 1995, Gaussian, Inc.),
 the Gaussian 92(TM) system (copyright 1992, Gaussian, Inc.),
 the Gaussian 90(TM) system (copyright 1990, Gaussian, Inc.),
 the Gaussian 88(TM) system (copyright 1988, Gaussian, Inc.),
 the Gaussian 86(TM) system (copyright 1986, Carnegie Mellon
 University), and the Gaussian 82(TM) system (copyright 1983,
 Carnegie Mellon University). Gaussian is a federally registered
 trademark of Gaussian, Inc.
  
 This software contains proprietary and confidential information,
 including trade secrets, belonging to Gaussian, Inc.
  
 This software is provided under written license and may be
 used, copied, transmitted, or stored only in accord with that
 written license.
  
 The following legend is applicable only to US Government
 contracts under FAR:
  
                    RESTRICTED RIGHTS LEGEND
  
 Use, reproduction and disclosure by the US Government is
 subject to restrictions as set forth in subparagraphs (a)
 and (c) of the Commercial Computer Software - Restricted
 Rights clause in FAR 52.227-19.
  
 Gaussian, Inc.
 340 Quinnipiac St., Bldg. 40, Wallingford CT 06492
  
  
 ---------------------------------------------------------------
 Warning -- This program may not be used in any manner that
 competes with the business of Gaussian, Inc. or will provide
 assistance to any competitor of Gaussian, Inc.  The licensee
 of this program is prohibited from giving any competitor of
 Gaussian, Inc. access to this program.  By using this program,
 the user acknowledges that Gaussian, Inc. is engaged in the
 business of creating and licensing software in the field of
 computational chemistry and represents and warrants to the
 licensee that it is not a competitor of Gaussian, Inc. and that
 it will not use this program in any manner prohibited above.
 ---------------------------------------------------------------
  

 Cite this work as:
 Gaussian 16, Revision A.03,
 M. J. Frisch, G. W. Trucks, H. B. Schlegel, G. E. Scuseria, 
 M. A. Robb, J. R. Cheeseman, G. Scalmani, V. Barone, 
 G. A. Petersson, H. Nakatsuji, X. Li, M. Caricato, A. V. Marenich, 
 J. Bloino, B. G. Janesko, R. Gomperts, B. Mennucci, H. P. Hratchian, 
 J. V. Ortiz, A. F. Izmaylov, J. L. Sonnenberg, D. Williams-Young, 
 F. Ding, F. Lipparini, F. Egidi, J. Goings, B. Peng, A. Petrone, 
 T. Henderson, D. Ranasinghe, V. G. Zakrzewski, J. Gao, N. Rega, 
 G. Zheng, W. Liang, M. Hada, M. Ehara, K. Toyota, R. Fukuda, 
 J. Hasegawa, M. Ishida, T. Nakajima, Y. Honda, O. Kitao, H. Nakai, 
 T. Vreven, K. Throssell, J. A. Montgomery, Jr., J. E. Peralta, 
 F. Ogliaro, M. J. Bearpark, J. J. Heyd, E. N. Brothers, K. N. Kudin, 
 V. N. Staroverov, T. A. Keith, R. Kobayashi, J. Normand, 
 K. Raghavachari, A. P. Rendell, J. C. Burant, S. S. Iyengar, 
 J. Tomasi, M. Cossi, J. M. Millam, M. Klene, C. Adamo, R. Cammi, 
 J. W. Ochterski, R. L. Martin, K. Morokuma, O. Farkas, 
 J. B. Foresman, and D. J. Fox, Gaussian, Inc., Wallingford CT, 2016.
 
 ******************************************
 Gaussian 16:  ES64L-G16RevA.03 25-Dec-2016
                18-Jan-2022 
 ******************************************
 %chk=100011.chk
 %nproc=1
 Will use up to    1 processors via shared memory.
 %mem=8GB
 -------------------
 #P B3LYP/6-31G* opt
 -------------------
 1/18=20,19=15,26=3,38=1/1,3;
 2/9=110,12=2,17=6,18=5,40=1/2;
 3/5=1,6=6,7=1,11=2,25=1,30=1,71=1,74=-5/1,2,3;
 4//1;
 5/5=2,38=5/2;
 6/7=2,8=2,9=2,10=2,28=1/1;
 7//1,2,3,16;
 1/18=20,19=15,26=3/3(2);
 2/9=110/2;
 99//99;
 2/9=110/2;
 3/5=1,6=6,7=1,11=2,25=1,30=1,71=1,74=-5/1,2,3;
 4/5=5,16=3,69=1/1;
 5/5=2,38=5/2;
 7//1,2,3,16;
 1/18=20,19=15,26=3/3(-5);
 2/9=110/2;
 6/7=2,8=2,9=2,10=2,19=2,28=1/1;
 99/9=1/99;
 Leave Link    1 at Tue Jan 18 06:31:11 2022, MaxMem=  1073741824 cpu:               0.0 elap:               0.0
 (Enter /scratch/xp2042/Softs/Gaussian16-A03-AVX2_linux64/g16/l101.exe)
 -------------------
 Title Card Required
 -------------------
 Symbolic Z-matrix:
 Charge =  0 Multiplicity = 1
 C                    -5.1499    0.695     0.037 
 C                    -4.5816    0.702    -1.2515 
 C                    -4.3299    0.8704    1.1686 
 C                     7.6224   -2.2322    0.915 
 C                    -3.194     0.8853   -1.4089 
 C                    -2.9423    1.0545    1.0115 
 C                     8.0827   -3.3839    0.2497 
 C                     6.2773   -1.8349    0.7923 
 C                     5.8492   -3.7443   -0.6624 
 C                     1.9176   -2.4954   -0.4039 
 C                     3.2579    1.3168    0.0708 
 C                     2.0961   -1.0835   -0.2717 
 C                    -2.3696    1.0667   -0.2787 
 C                     7.1966   -4.1424   -0.5419 
 C                     5.3781   -2.5896    0.0055 
 C                     3.4913   -0.9009   -0.0831 
 C                     1.3091    0.0937   -0.2743 
 C                     7.6833   -5.3816   -1.2645 
 C                    -0.8735    1.2714   -0.4555 
 N                     3.0581   -3.1362   -0.3102 
 N                     4.1211    0.2972    0.103 
 N                     1.9332    1.2871   -0.1077 
 N                     4.0229   -2.1885   -0.1255 
 N                    -0.0812    0.0467   -0.4562 
 H                    -6.2141    0.5548    0.1572 
 H                    -5.2098    0.5676   -2.1196 
 H                    -4.7651    0.8636    2.1572 
 H                     8.3032   -1.6497    1.5182 
 H                    -2.7657    0.8929   -2.4007 
 H                    -2.3192    1.1887    1.8836 
 H                     9.1169   -3.6797    0.3483 
 H                     5.9485   -0.9406    1.2999 
 H                     5.1775   -4.3351   -1.2685 
 H                     1.0044   -3.0505   -0.5589 
 H                     3.6886    2.2979    0.2053 
 H                     7.573    -6.2732   -0.6463 
 H                     8.7369   -5.2772   -1.5249 
 H                     7.1151   -5.5316   -2.1827 
 H                    -0.4954    1.94      0.319 
 H                    -0.7109    1.781    -1.4053 
 H                    -0.5602   -0.822    -0.2687 
 
 ITRead=  0  0  0  0  0  0  0  0  0  0  0  0  0  0  0  0  0  0  0  0
 ITRead=  0  0  0  0  0  0  0  0  0  0  0  0  0  0  0  0  0  0  0  0
 ITRead=  0
 MicOpt= -1 -1 -1 -1 -1 -1 -1 -1 -1 -1 -1 -1 -1 -1 -1 -1 -1 -1 -1 -1
 MicOpt= -1 -1 -1 -1 -1 -1 -1 -1 -1 -1 -1 -1 -1 -1 -1 -1 -1 -1 -1 -1
 MicOpt= -1
 NAtoms=     41 NQM=       41 NQMF=       0 NMMI=      0 NMMIF=      0
                NMic=       0 NMicF=      0.
                    Isotopes and Nuclear Properties:
 (Nuclear quadrupole moments (NQMom) in fm**2, nuclear magnetic moments (NMagM)
  in nuclear magnetons)

  Atom         1           2           3           4           5           6           7           8           9          10
 IAtWgt=          12          12          12          12          12          12          12          12          12          12
 AtmWgt=  12.0000000  12.0000000  12.0000000  12.0000000  12.0000000  12.0000000  12.0000000  12.0000000  12.0000000  12.0000000
 NucSpn=           0           0           0           0           0           0           0           0           0           0
 AtZEff=  -0.0000000  -0.0000000  -0.0000000  -0.0000000  -0.0000000  -0.0000000  -0.0000000  -0.0000000  -0.0000000  -0.0000000
 NQMom=    0.0000000   0.0000000   0.0000000   0.0000000   0.0000000   0.0000000   0.0000000   0.0000000   0.0000000   0.0000000
 NMagM=    0.0000000   0.0000000   0.0000000   0.0000000   0.0000000   0.0000000   0.0000000   0.0000000   0.0000000   0.0000000
 AtZNuc=   6.0000000   6.0000000   6.0000000   6.0000000   6.0000000   6.0000000   6.0000000   6.0000000   6.0000000   6.0000000

  Atom        11          12          13          14          15          16          17          18          19          20
 IAtWgt=          12          12          12          12          12          12          12          12          12          14
 AtmWgt=  12.0000000  12.0000000  12.0000000  12.0000000  12.0000000  12.0000000  12.0000000  12.0000000  12.0000000  14.0030740
 NucSpn=           0           0           0           0           0           0           0           0           0           2
 AtZEff=  -0.0000000  -0.0000000  -0.0000000  -0.0000000  -0.0000000  -0.0000000  -0.0000000  -0.0000000  -0.0000000  -0.0000000
 NQMom=    0.0000000   0.0000000   0.0000000   0.0000000   0.0000000   0.0000000   0.0000000   0.0000000   0.0000000   2.0440000
 NMagM=    0.0000000   0.0000000   0.0000000   0.0000000   0.0000000   0.0000000   0.0000000   0.0000000   0.0000000   0.4037610
 AtZNuc=   6.0000000   6.0000000   6.0000000   6.0000000   6.0000000   6.0000000   6.0000000   6.0000000   6.0000000   7.0000000

  Atom        21          22          23          24          25          26          27          28          29          30
 IAtWgt=          14          14          14          14           1           1           1           1           1           1
 AtmWgt=  14.0030740  14.0030740  14.0030740  14.0030740   1.0078250   1.0078250   1.0078250   1.0078250   1.0078250   1.0078250
 NucSpn=           2           2           2           2           1           1           1           1           1           1
 AtZEff=  -0.0000000  -0.0000000  -0.0000000  -0.0000000  -0.0000000  -0.0000000  -0.0000000  -0.0000000  -0.0000000  -0.0000000
 NQMom=    2.0440000   2.0440000   2.0440000   2.0440000   0.0000000   0.0000000   0.0000000   0.0000000   0.0000000   0.0000000
 NMagM=    0.4037610   0.4037610   0.4037610   0.4037610   2.7928460   2.7928460   2.7928460   2.7928460   2.7928460   2.7928460
 AtZNuc=   7.0000000   7.0000000   7.0000000   7.0000000   1.0000000   1.0000000   1.0000000   1.0000000   1.0000000   1.0000000

  Atom        31          32          33          34          35          36          37          38          39          40
 IAtWgt=           1           1           1           1           1           1           1           1           1           1
 AtmWgt=   1.0078250   1.0078250   1.0078250   1.0078250   1.0078250   1.0078250   1.0078250   1.0078250   1.0078250   1.0078250
 NucSpn=           1           1           1           1           1           1           1           1           1           1
 AtZEff=  -0.0000000  -0.0000000  -0.0000000  -0.0000000  -0.0000000  -0.0000000  -0.0000000  -0.0000000  -0.0000000  -0.0000000
 NQMom=    0.0000000   0.0000000   0.0000000   0.0000000   0.0000000   0.0000000   0.0000000   0.0000000   0.0000000   0.0000000
 NMagM=    2.7928460   2.7928460   2.7928460   2.7928460   2.7928460   2.7928460   2.7928460   2.7928460   2.7928460   2.7928460
 AtZNuc=   1.0000000   1.0000000   1.0000000   1.0000000   1.0000000   1.0000000   1.0000000   1.0000000   1.0000000   1.0000000

  Atom        41
 IAtWgt=           1
 AtmWgt=   1.0078250
 NucSpn=           1
 AtZEff=  -0.0000000
 NQMom=    0.0000000
 NMagM=    2.7928460
 AtZNuc=   1.0000000
 Leave Link  101 at Tue Jan 18 06:31:11 2022, MaxMem=  1073741824 cpu:               0.4 elap:               0.4
 (Enter /scratch/xp2042/Softs/Gaussian16-A03-AVX2_linux64/g16/l103.exe)

 GradGradGradGradGradGradGradGradGradGradGradGradGradGradGradGradGradGrad
 Berny optimization.
 Initialization pass.
                           ----------------------------
                           !    Initial Parameters    !
                           ! (Angstroms and Degrees)  !
 --------------------------                            --------------------------
 ! Name  Definition              Value          Derivative Info.                !
 --------------------------------------------------------------------------------
 ! R1    R(1,2)                  1.4083         estimate D2E/DX2                !
 ! R2    R(1,3)                  1.4084         estimate D2E/DX2                !
 ! R3    R(1,25)                 1.0801         estimate D2E/DX2                !
 ! R4    R(2,5)                  1.4085         estimate D2E/DX2                !
 ! R5    R(2,26)                 1.08           estimate D2E/DX2                !
 ! R6    R(3,6)                  1.4085         estimate D2E/DX2                !
 ! R7    R(3,27)                 1.0802         estimate D2E/DX2                !
 ! R8    R(4,7)                  1.4074         estimate D2E/DX2                !
 ! R9    R(4,8)                  1.4079         estimate D2E/DX2                !
 ! R10   R(4,28)                 1.0801         estimate D2E/DX2                !
 ! R11   R(5,13)                 1.4106         estimate D2E/DX2                !
 ! R12   R(5,29)                 1.0804         estimate D2E/DX2                !
 ! R13   R(6,13)                 1.4116         estimate D2E/DX2                !
 ! R14   R(6,30)                 1.0802         estimate D2E/DX2                !
 ! R15   R(7,14)                 1.4097         estimate D2E/DX2                !
 ! R16   R(7,31)                 1.0802         estimate D2E/DX2                !
 ! R17   R(8,15)                 1.4132         estimate D2E/DX2                !
 ! R18   R(8,32)                 1.0796         estimate D2E/DX2                !
 ! R19   R(9,14)                 1.4101         estimate D2E/DX2                !
 ! R20   R(9,15)                 1.4147         estimate D2E/DX2                !
 ! R21   R(9,33)                 1.0805         estimate D2E/DX2                !
 ! R22   R(10,12)                1.4293         estimate D2E/DX2                !
 ! R23   R(10,20)                1.3115         estimate D2E/DX2                !
 ! R24   R(10,34)                1.0799         estimate D2E/DX2                !
 ! R25   R(11,21)                1.3363         estimate D2E/DX2                !
 ! R26   R(11,22)                1.337          estimate D2E/DX2                !
 ! R27   R(11,35)                1.0799         estimate D2E/DX2                !
 ! R28   R(12,16)                1.4197         estimate D2E/DX2                !
 ! R29   R(12,17)                1.416          estimate D2E/DX2                !
 ! R30   R(13,19)                1.5204         estimate D2E/DX2                !
 ! R31   R(14,18)                1.5148         estimate D2E/DX2                !
 ! R32   R(15,23)                1.4194         estimate D2E/DX2                !
 ! R33   R(16,21)                1.3663         estimate D2E/DX2                !
 ! R34   R(16,23)                1.3937         estimate D2E/DX2                !
 ! R35   R(17,22)                1.357          estimate D2E/DX2                !
 ! R36   R(17,24)                1.4029         estimate D2E/DX2                !
 ! R37   R(18,36)                1.0905         estimate D2E/DX2                !
 ! R38   R(18,37)                1.0903         estimate D2E/DX2                !
 ! R39   R(18,38)                1.0902         estimate D2E/DX2                !
 ! R40   R(19,24)                1.4586         estimate D2E/DX2                !
 ! R41   R(19,39)                1.0908         estimate D2E/DX2                !
 ! R42   R(19,40)                1.0901         estimate D2E/DX2                !
 ! R43   R(20,23)                1.3649         estimate D2E/DX2                !
 ! R44   R(24,41)                1.0096         estimate D2E/DX2                !
 ! A1    A(2,1,3)              119.97           estimate D2E/DX2                !
 ! A2    A(2,1,25)             120.0044         estimate D2E/DX2                !
 ! A3    A(3,1,25)             120.0256         estimate D2E/DX2                !
 ! A4    A(1,2,5)              120.0301         estimate D2E/DX2                !
 ! A5    A(1,2,26)             120.0071         estimate D2E/DX2                !
 ! A6    A(5,2,26)             119.9627         estimate D2E/DX2                !
 ! A7    A(1,3,6)              120.0142         estimate D2E/DX2                !
 ! A8    A(1,3,27)             119.9986         estimate D2E/DX2                !
 ! A9    A(6,3,27)             119.9872         estimate D2E/DX2                !
 ! A10   A(7,4,8)              120.144          estimate D2E/DX2                !
 ! A11   A(7,4,28)             119.9434         estimate D2E/DX2                !
 ! A12   A(8,4,28)             119.9122         estimate D2E/DX2                !
 ! A13   A(2,5,13)             120.1957         estimate D2E/DX2                !
 ! A14   A(2,5,29)             119.6088         estimate D2E/DX2                !
 ! A15   A(13,5,29)            120.1942         estimate D2E/DX2                !
 ! A16   A(3,6,13)             120.1808         estimate D2E/DX2                !
 ! A17   A(3,6,30)             119.6337         estimate D2E/DX2                !
 ! A18   A(13,6,30)            120.1854         estimate D2E/DX2                !
 ! A19   A(4,7,14)             120.0112         estimate D2E/DX2                !
 ! A20   A(4,7,31)             119.6077         estimate D2E/DX2                !
 ! A21   A(14,7,31)            120.381          estimate D2E/DX2                !
 ! A22   A(4,8,15)             120.3789         estimate D2E/DX2                !
 ! A23   A(4,8,32)             118.9307         estimate D2E/DX2                !
 ! A24   A(15,8,32)            120.6873         estimate D2E/DX2                !
 ! A25   A(14,9,15)            120.549          estimate D2E/DX2                !
 ! A26   A(14,9,33)            119.1795         estimate D2E/DX2                !
 ! A27   A(15,9,33)            120.2709         estimate D2E/DX2                !
 ! A28   A(12,10,20)           111.5577         estimate D2E/DX2                !
 ! A29   A(12,10,34)           128.8066         estimate D2E/DX2                !
 ! A30   A(20,10,34)           119.6353         estimate D2E/DX2                !
 ! A31   A(21,11,22)           128.7762         estimate D2E/DX2                !
 ! A32   A(21,11,35)           115.6304         estimate D2E/DX2                !
 ! A33   A(22,11,35)           115.5933         estimate D2E/DX2                !
 ! A34   A(10,12,16)           105.1936         estimate D2E/DX2                !
 ! A35   A(10,12,17)           138.7335         estimate D2E/DX2                !
 ! A36   A(16,12,17)           116.0725         estimate D2E/DX2                !
 ! A37   A(5,13,6)             119.6079         estimate D2E/DX2                !
 ! A38   A(5,13,19)            119.9496         estimate D2E/DX2                !
 ! A39   A(6,13,19)            120.4424         estimate D2E/DX2                !
 ! A40   A(7,14,9)             119.7824         estimate D2E/DX2                !
 ! A41   A(7,14,18)            120.4036         estimate D2E/DX2                !
 ! A42   A(9,14,18)            119.8139         estimate D2E/DX2                !
 ! A43   A(8,15,9)             119.1337         estimate D2E/DX2                !
 ! A44   A(8,15,23)            120.5297         estimate D2E/DX2                !
 ! A45   A(9,15,23)            120.3335         estimate D2E/DX2                !
 ! A46   A(12,16,21)           125.7248         estimate D2E/DX2                !
 ! A47   A(12,16,23)           104.5952         estimate D2E/DX2                !
 ! A48   A(21,16,23)           129.6788         estimate D2E/DX2                !
 ! A49   A(12,17,22)           118.3771         estimate D2E/DX2                !
 ! A50   A(12,17,24)           121.5442         estimate D2E/DX2                !
 ! A51   A(22,17,24)           120.076          estimate D2E/DX2                !
 ! A52   A(14,18,36)           111.4638         estimate D2E/DX2                !
 ! A53   A(14,18,37)           110.2473         estimate D2E/DX2                !
 ! A54   A(14,18,38)           110.2965         estimate D2E/DX2                !
 ! A55   A(36,18,37)           108.1441         estimate D2E/DX2                !
 ! A56   A(36,18,38)           108.1947         estimate D2E/DX2                !
 ! A57   A(37,18,38)           108.4016         estimate D2E/DX2                !
 ! A58   A(13,19,24)           114.9307         estimate D2E/DX2                !
 ! A59   A(13,19,39)           109.9412         estimate D2E/DX2                !
 ! A60   A(13,19,40)           108.1227         estimate D2E/DX2                !
 ! A61   A(24,19,39)           109.0687         estimate D2E/DX2                !
 ! A62   A(24,19,40)           108.124          estimate D2E/DX2                !
 ! A63   A(39,19,40)           106.2848         estimate D2E/DX2                !
 ! A64   A(10,20,23)           106.5645         estimate D2E/DX2                !
 ! A65   A(11,21,16)           111.5943         estimate D2E/DX2                !
 ! A66   A(11,22,17)           119.4461         estimate D2E/DX2                !
 ! A67   A(15,23,16)           128.4967         estimate D2E/DX2                !
 ! A68   A(15,23,20)           119.4173         estimate D2E/DX2                !
 ! A69   A(16,23,20)           112.0843         estimate D2E/DX2                !
 ! A70   A(17,24,19)           120.6701         estimate D2E/DX2                !
 ! A71   A(17,24,41)           118.3549         estimate D2E/DX2                !
 ! A72   A(19,24,41)           117.688          estimate D2E/DX2                !
 ! D1    D(3,1,2,5)             -0.0476         estimate D2E/DX2                !
 ! D2    D(3,1,2,26)          -179.9976         estimate D2E/DX2                !
 ! D3    D(25,1,2,5)           179.9753         estimate D2E/DX2                !
 ! D4    D(25,1,2,26)            0.0252         estimate D2E/DX2                !
 ! D5    D(2,1,3,6)              0.084          estimate D2E/DX2                !
 ! D6    D(2,1,3,27)          -179.9065         estimate D2E/DX2                !
 ! D7    D(25,1,3,6)          -179.9389         estimate D2E/DX2                !
 ! D8    D(25,1,3,27)            0.0706         estimate D2E/DX2                !
 ! D9    D(1,2,5,13)            -0.2066         estimate D2E/DX2                !
 ! D10   D(1,2,5,29)          -179.7902         estimate D2E/DX2                !
 ! D11   D(26,2,5,13)          179.7435         estimate D2E/DX2                !
 ! D12   D(26,2,5,29)            0.1598         estimate D2E/DX2                !
 ! D13   D(1,3,6,13)             0.1334         estimate D2E/DX2                !
 ! D14   D(1,3,6,30)           179.9848         estimate D2E/DX2                !
 ! D15   D(27,3,6,13)         -179.8761         estimate D2E/DX2                !
 ! D16   D(27,3,6,30)           -0.0247         estimate D2E/DX2                !
 ! D17   D(8,4,7,14)             0.0134         estimate D2E/DX2                !
 ! D18   D(8,4,7,31)           179.8797         estimate D2E/DX2                !
 ! D19   D(28,4,7,14)         -179.7652         estimate D2E/DX2                !
 ! D20   D(28,4,7,31)            0.1011         estimate D2E/DX2                !
 ! D21   D(7,4,8,15)             0.213          estimate D2E/DX2                !
 ! D22   D(7,4,8,32)          -179.1535         estimate D2E/DX2                !
 ! D23   D(28,4,8,15)          179.9917         estimate D2E/DX2                !
 ! D24   D(28,4,8,32)            0.6252         estimate D2E/DX2                !
 ! D25   D(2,5,13,6)             0.4217         estimate D2E/DX2                !
 ! D26   D(2,5,13,19)         -179.678          estimate D2E/DX2                !
 ! D27   D(29,5,13,6)         -179.9971         estimate D2E/DX2                !
 ! D28   D(29,5,13,19)          -0.0968         estimate D2E/DX2                !
 ! D29   D(3,6,13,5)            -0.3852         estimate D2E/DX2                !
 ! D30   D(3,6,13,19)          179.715          estimate D2E/DX2                !
 ! D31   D(30,6,13,5)          179.7643         estimate D2E/DX2                !
 ! D32   D(30,6,13,19)          -0.1355         estimate D2E/DX2                !
 ! D33   D(4,7,14,9)            -0.1002         estimate D2E/DX2                !
 ! D34   D(4,7,14,18)          179.8529         estimate D2E/DX2                !
 ! D35   D(31,7,14,9)         -179.9654         estimate D2E/DX2                !
 ! D36   D(31,7,14,18)          -0.0123         estimate D2E/DX2                !
 ! D37   D(4,8,15,9)            -0.3476         estimate D2E/DX2                !
 ! D38   D(4,8,15,23)         -179.7024         estimate D2E/DX2                !
 ! D39   D(32,8,15,9)          179.0077         estimate D2E/DX2                !
 ! D40   D(32,8,15,23)          -0.3471         estimate D2E/DX2                !
 ! D41   D(15,9,14,7)           -0.0384         estimate D2E/DX2                !
 ! D42   D(15,9,14,18)        -179.9918         estimate D2E/DX2                !
 ! D43   D(33,9,14,7)         -179.7573         estimate D2E/DX2                !
 ! D44   D(33,9,14,18)           0.2893         estimate D2E/DX2                !
 ! D45   D(14,9,15,8)            0.2606         estimate D2E/DX2                !
 ! D46   D(14,9,15,23)         179.6167         estimate D2E/DX2                !
 ! D47   D(33,9,15,8)          179.9765         estimate D2E/DX2                !
 ! D48   D(33,9,15,23)          -0.6674         estimate D2E/DX2                !
 ! D49   D(20,10,12,16)          0.0474         estimate D2E/DX2                !
 ! D50   D(20,10,12,17)       -179.7009         estimate D2E/DX2                !
 ! D51   D(34,10,12,16)        179.842          estimate D2E/DX2                !
 ! D52   D(34,10,12,17)          0.0936         estimate D2E/DX2                !
 ! D53   D(12,10,20,23)         -0.4487         estimate D2E/DX2                !
 ! D54   D(34,10,20,23)        179.7355         estimate D2E/DX2                !
 ! D55   D(22,11,21,16)          0.2398         estimate D2E/DX2                !
 ! D56   D(35,11,21,16)       -179.6332         estimate D2E/DX2                !
 ! D57   D(21,11,22,17)          0.6219         estimate D2E/DX2                !
 ! D58   D(35,11,22,17)       -179.505          estimate D2E/DX2                !
 ! D59   D(10,12,16,21)       -179.2778         estimate D2E/DX2                !
 ! D60   D(10,12,16,23)          0.3627         estimate D2E/DX2                !
 ! D61   D(17,12,16,21)          0.5374         estimate D2E/DX2                !
 ! D62   D(17,12,16,23)       -179.822          estimate D2E/DX2                !
 ! D63   D(10,12,17,22)       -179.8958         estimate D2E/DX2                !
 ! D64   D(10,12,17,24)         -0.5028         estimate D2E/DX2                !
 ! D65   D(16,12,17,22)          0.3746         estimate D2E/DX2                !
 ! D66   D(16,12,17,24)        179.7676         estimate D2E/DX2                !
 ! D67   D(5,13,19,24)         -89.9014         estimate D2E/DX2                !
 ! D68   D(5,13,19,39)         146.6013         estimate D2E/DX2                !
 ! D69   D(5,13,19,40)          30.9679         estimate D2E/DX2                !
 ! D70   D(6,13,19,24)          89.9981         estimate D2E/DX2                !
 ! D71   D(6,13,19,39)         -33.4992         estimate D2E/DX2                !
 ! D72   D(6,13,19,40)        -149.1326         estimate D2E/DX2                !
 ! D73   D(7,14,18,36)          89.9984         estimate D2E/DX2                !
 ! D74   D(7,14,18,37)         -30.113          estimate D2E/DX2                !
 ! D75   D(7,14,18,38)        -149.7936         estimate D2E/DX2                !
 ! D76   D(9,14,18,36)         -90.0485         estimate D2E/DX2                !
 ! D77   D(9,14,18,37)         149.8401         estimate D2E/DX2                !
 ! D78   D(9,14,18,38)          30.1595         estimate D2E/DX2                !
 ! D79   D(8,15,23,16)          29.9995         estimate D2E/DX2                !
 ! D80   D(8,15,23,20)        -149.4811         estimate D2E/DX2                !
 ! D81   D(9,15,23,16)        -149.3476         estimate D2E/DX2                !
 ! D82   D(9,15,23,20)          31.1719         estimate D2E/DX2                !
 ! D83   D(12,16,21,11)         -0.8209         estimate D2E/DX2                !
 ! D84   D(23,16,21,11)        179.6311         estimate D2E/DX2                !
 ! D85   D(12,16,23,15)        179.8219         estimate D2E/DX2                !
 ! D86   D(12,16,23,20)         -0.6664         estimate D2E/DX2                !
 ! D87   D(21,16,23,15)         -0.5573         estimate D2E/DX2                !
 ! D88   D(21,16,23,20)        178.9544         estimate D2E/DX2                !
 ! D89   D(12,17,22,11)         -0.9033         estimate D2E/DX2                !
 ! D90   D(24,17,22,11)        179.6945         estimate D2E/DX2                !
 ! D91   D(12,17,24,19)        179.9992         estimate D2E/DX2                !
 ! D92   D(12,17,24,41)         20.9428         estimate D2E/DX2                !
 ! D93   D(22,17,24,19)         -0.6179         estimate D2E/DX2                !
 ! D94   D(22,17,24,41)       -159.6743         estimate D2E/DX2                !
 ! D95   D(13,19,24,17)       -163.9586         estimate D2E/DX2                !
 ! D96   D(13,19,24,41)         -4.7669         estimate D2E/DX2                !
 ! D97   D(39,19,24,17)        -39.9984         estimate D2E/DX2                !
 ! D98   D(39,19,24,41)        119.1933         estimate D2E/DX2                !
 ! D99   D(40,19,24,17)         75.1728         estimate D2E/DX2                !
 ! D100  D(40,19,24,41)       -125.6355         estimate D2E/DX2                !
 ! D101  D(10,20,23,15)       -179.732          estimate D2E/DX2                !
 ! D102  D(10,20,23,16)          0.7068         estimate D2E/DX2                !
 --------------------------------------------------------------------------------
 Trust Radius=3.00D-01 FncErr=1.00D-07 GrdErr=1.00D-06 EigMax=2.50D+02 EigMin=1.00D-04
 Number of steps in this run=    228 maximum allowed number of steps=    246.
 GradGradGradGradGradGradGradGradGradGradGradGradGradGradGradGradGradGrad

 Leave Link  103 at Tue Jan 18 06:31:11 2022, MaxMem=  1073741824 cpu:               0.0 elap:               0.0
 (Enter /scratch/xp2042/Softs/Gaussian16-A03-AVX2_linux64/g16/l202.exe)
                          Input orientation:                          
 ---------------------------------------------------------------------
 Center     Atomic      Atomic             Coordinates (Angstroms)
 Number     Number       Type             X           Y           Z
 ---------------------------------------------------------------------
      1          6           0       -5.149900    0.695000    0.037000
      2          6           0       -4.581600    0.702000   -1.251500
      3          6           0       -4.329900    0.870400    1.168600
      4          6           0        7.622400   -2.232200    0.915000
      5          6           0       -3.194000    0.885300   -1.408900
      6          6           0       -2.942300    1.054500    1.011500
      7          6           0        8.082700   -3.383900    0.249700
      8          6           0        6.277300   -1.834900    0.792300
      9          6           0        5.849200   -3.744300   -0.662400
     10          6           0        1.917600   -2.495400   -0.403900
     11          6           0        3.257900    1.316800    0.070800
     12          6           0        2.096100   -1.083500   -0.271700
     13          6           0       -2.369600    1.066700   -0.278700
     14          6           0        7.196600   -4.142400   -0.541900
     15          6           0        5.378100   -2.589600    0.005500
     16          6           0        3.491300   -0.900900   -0.083100
     17          6           0        1.309100    0.093700   -0.274300
     18          6           0        7.683300   -5.381600   -1.264500
     19          6           0       -0.873500    1.271400   -0.455500
     20          7           0        3.058100   -3.136200   -0.310200
     21          7           0        4.121100    0.297200    0.103000
     22          7           0        1.933200    1.287100   -0.107700
     23          7           0        4.022900   -2.188500   -0.125500
     24          7           0       -0.081200    0.046700   -0.456200
     25          1           0       -6.214100    0.554800    0.157200
     26          1           0       -5.209800    0.567600   -2.119600
     27          1           0       -4.765100    0.863600    2.157200
     28          1           0        8.303200   -1.649700    1.518200
     29          1           0       -2.765700    0.892900   -2.400700
     30          1           0       -2.319200    1.188700    1.883600
     31          1           0        9.116900   -3.679700    0.348300
     32          1           0        5.948500   -0.940600    1.299900
     33          1           0        5.177500   -4.335100   -1.268500
     34          1           0        1.004400   -3.050500   -0.558900
     35          1           0        3.688600    2.297900    0.205300
     36          1           0        7.573000   -6.273200   -0.646300
     37          1           0        8.736900   -5.277200   -1.524900
     38          1           0        7.115100   -5.531600   -2.182700
     39          1           0       -0.495400    1.940000    0.319000
     40          1           0       -0.710900    1.781000   -1.405300
     41          1           0       -0.560200   -0.822000   -0.268700
 ---------------------------------------------------------------------
                    Distance matrix (angstroms):
                    1          2          3          4          5
     1  C    0.000000
     2  C    1.408278   0.000000
     3  C    1.408433   2.438974   0.000000
     4  C   13.132823  12.737381  12.351029   0.000000
     5  C    2.439751   1.408477   2.816735  11.494078   0.000000
     6  C    2.439752   2.816510   1.408548  11.064565   2.439327
     7  C   13.848623  13.391515  13.153558   1.407449  12.171318
     8  C   11.728247  11.337049  10.953216   1.407905  10.097044
     9  C   11.881782  11.354216  11.325286   2.814050  10.186752
    10  C    7.766763   7.292557   7.268605   5.861187   6.210283
    11  C    8.430829   7.973971   7.679788   5.688316   6.633454
    12  C    7.467454   6.981382   6.869182   5.767821   5.757999
    13  C    2.822746   2.443827   2.444583  10.589982   1.410636
    14  C   13.272966  12.755302  12.685195   2.439821  11.575579
    15  C   11.028525  10.564578  10.371580   2.447817   9.357155
    16  C    8.788154   8.313012   8.116368   4.453600   7.045672
    17  C    6.494394   6.002108   5.872269   6.832423   4.710823
    18  C   14.258681  13.690805  13.759522   3.830489  12.554304
    19  C    4.343085   3.835080   3.839948   9.291598   2.538260
    20  N    9.064762   8.601328   8.533595   4.811566   7.514543
    21  N    9.279765   8.816775   8.537181   4.395032   7.492823
    22  N    7.109277   6.640274   6.405389   6.767450   5.304974
    23  N    9.616717   9.146600   8.988928   3.747126   7.948522
    24  N    5.133737   4.616873   4.622760   8.149787   3.361608
    25  H    1.080104   2.161287   2.161653  14.134722   3.418026
    26  H    2.161190   1.079952   3.417334  13.480098   2.160897
    27  H    2.161422   3.417458   1.080174  12.828764   3.896908
    28  H   13.735992  13.387300  12.886751   1.080113  12.131766
    29  H    3.415546   2.157451   3.897067  11.343401   1.080355
    30  H    3.415631   3.896689   2.157650  10.558227   3.420217
    31  H   14.925699  14.470921  14.219449   2.156371  13.247084
    32  H   11.289136  10.958594  10.437551   2.149028   9.708595
    33  H   11.561204  10.982381  11.109786   3.894534   9.866828
    34  H    7.229058   6.764935   6.841964   6.829343   5.817180
    35  H    8.984247   8.547828   8.201344   6.041545   7.209110
    36  H   14.522221  14.026902  14.000140   4.332410  12.951987
    37  H   15.197037  14.601645  14.689765   4.057986  13.428933
    38  H   13.932977  13.286749  13.535318   4.554024  12.167700
    39  H    4.826377   4.549302   4.070535   9.146647   3.373496
    40  H    4.792113   4.021220   4.533356   9.535903   2.639712
    41  H    4.843561   4.411364   4.375007   8.387178   3.339436
                    6          7          8          9         10
     6  C    0.000000
     7  C   11.909255   0.000000
     8  C    9.664249   2.439935   0.000000
     9  C   10.154846   2.439331   2.438284   0.000000
    10  C    6.182538   6.262993   4.568822   4.133286   0.000000
    11  C    6.276639   6.738492   4.423862   5.732988   4.068736
    12  C    5.621665   6.434522   4.379399   4.617170   1.429266
    13  C    1.411648  11.372670   9.183420   9.531087   5.575331
    14  C   11.498614   1.409655   2.819532   1.410139   5.531681
    15  C    9.138958   2.829383   1.413219   1.414694   3.485906
    16  C    6.812705   5.230392   3.066020   3.739011   2.263156
    17  C    4.544317   7.632164   5.435085   5.957632   2.662801
    18  C   12.629605   2.538332   4.334322   2.531244   6.504927
    19  C    2.545401  10.118431   7.895571   8.390158   4.688463
    20  N    7.437315   5.061763   3.643094   2.878206   1.311543
    21  N    7.161738   5.409833   3.109692   4.461602   3.593184
    22  N    5.007715   7.730610   5.424766   6.399823   3.794112
    23  N    7.766842   4.248733   2.459616   2.458485   2.145689
    24  N    3.369822   8.883500   6.747569   7.041580   3.234225
    25  H    3.418216  14.829714  12.733778  12.832662   8.703051
    26  H    3.896462  14.068351  12.091511  11.958988   7.945151
    27  H    2.161405  13.665496  11.448993  11.909922   7.905732
    28  H   11.577163   2.159899   2.159977   3.894160   6.722021
    29  H    3.420586  11.958404   9.970556   9.936892   6.115643
    30  H    1.080195  11.479452   9.177849   9.876202   6.062650
    31  H   12.972154   1.080180   3.415223   3.421045   7.334732
    32  H    9.116464   3.409904   1.079602   3.423626   4.644189
    33  H   10.008863   3.413195   3.421616   1.080547   3.841741
    34  H    5.907082   7.132133   5.577356   4.895320   1.079859
    35  H    6.794471   7.182822   4.911820   6.475282   5.146192
    36  H   12.923429   3.067681   4.842201   3.060569   6.805445
    37  H   13.525068   2.676148   4.823741   3.381198   7.449692
    38  H   12.439088   3.386065   4.818519   2.666131   6.276675
    39  H    2.692766  10.096163   7.768098   8.574868   5.100777
    40  H    3.368660  10.331632   8.169401   8.609051   5.118536
    41  H    3.291590   9.029496   6.993075   7.055157   2.992998
                   11         12         13         14         15
    11  C    0.000000
    12  C    2.688592   0.000000
    13  C    5.643887   4.956398   0.000000
    14  C    6.759558   5.953568  10.895695   0.000000
    15  C    4.445163   3.621699   8.571823   2.453116   0.000000
    16  C    2.235253   1.419682   6.185455   4.944398   2.533687
    17  C    2.326562   1.416042   3.805205   7.258017   4.882125
    18  C    8.138535   7.118716  11.983871   1.514808   3.836940
    19  C    4.165035   3.794451   1.520354   9.718190   7.362224
    20  N    4.473733   2.267268   6.864786   4.265361   2.404337
    21  N    1.336314   2.479387   6.547290   5.439177   3.150106
    22  N    1.337002   2.381843   4.311833   7.574390   5.187384
    23  N    3.593172   2.225973   7.175225   3.750131   1.419369
    24  N    3.611159   2.460087   2.511709   8.397754   6.080066
    25  H    9.502994   8.481003   3.902849  14.226711  12.012051
    26  H    8.778445   7.714729   3.421220  13.363832  11.251115
    27  H    8.302228   7.534376   3.422467  13.244903  10.928811
    28  H    6.029108   6.484783  11.158689   3.417913   3.424600
    29  H    6.524704   5.663559   2.165637  11.316219   9.178185
    30  H    5.865722   5.413232   2.166325  11.173814   8.777883
    31  H    7.705187   7.511078  12.444321   2.166587   3.909534
    32  H    3.721004   4.163092   8.701265   3.898911   2.172563
    33  H    6.117398   4.589285   9.333695   2.154494   2.170273
    34  H    4.954603   2.267902   5.330453   6.287756   4.433986
    35  H    1.079884   3.767951   6.200959   7.371692   5.175132
    36  H    8.760275   7.554452  12.363841   2.166307   4.337204
    37  H    8.720466   7.953481  12.851164   2.150950   4.565836
    38  H    8.176603   6.973369  11.709924   2.151451   4.057185
    39  H    3.812774   4.025711   2.152330   9.843963   7.423851
    40  H    4.259780   4.167692   2.128553   9.917695   7.626823
    41  H    4.389489   2.669142   2.615572   8.442016   6.201855
                   16         17         18         19         20
    16  C    0.000000
    17  C    2.405781   0.000000
    18  C    6.248619   8.461077   0.000000
    19  C    4.889688   2.486675  10.869026   0.000000
    20  N    2.288188   3.673220   5.229243   5.908090   0.000000
    21  N    1.366281   2.844488   6.841644   5.119279   3.617864
    22  N    2.686191   1.357004   8.881070   2.828211   4.568587
    23  N    1.393668   3.548984   4.989162   6.004543   1.364950
    24  N    3.714822   1.402936   9.508273   1.458640   4.472960
    25  H    9.816904   7.549659  15.178926   5.423184   9.990778
    26  H    9.056101   6.791596  14.225196   4.697665   9.238519
    27  H    8.735018   6.587932  14.341312   4.705003   9.126276
    28  H    5.126329   7.427647   4.696251   9.830572   5.750113
    29  H    6.909344   4.665222  12.240993   2.739979   7.383799
    30  H    6.480451   4.361206  12.374546   2.751050   7.241055
    31  H    6.289293   8.694131   2.748235  11.178890   6.118666
    32  H    2.819946   5.007186   5.413701   7.383364   3.970830
    33  H    4.005268   5.963826   2.715550   8.289054   2.616784
    34  H    3.321421   3.171724   7.109121   4.713387   2.070478
    35  H    3.217829   3.278801   8.780243   4.722617   5.494790
    36  H    6.770456   8.939365   1.090545  11.326992   5.507999
    37  H    6.981913   9.251096   1.090312  11.678509   6.189358
    38  H    6.243687   8.306361   1.090157  10.633991   5.069857
    39  H    4.911840   2.648971  11.090736   1.090796   6.228247
    40  H    5.157449   2.864706  11.035636   1.090069   6.291539
    41  H    4.056516   2.081543   9.472954   2.124941   4.295269
                   21         22         23         24         25
    21  N    0.000000
    22  N    2.410644   0.000000
    23  N    2.498111   4.055485   0.000000
    24  N    4.246738   2.391203   4.684989   0.000000
    25  H   10.338552   8.184432  10.601971   6.184407   0.000000
    26  H    9.595768   7.455727   9.839475   5.416713   2.488494
    27  H    9.138112   7.083526   9.578882   5.425505   2.488967
    28  H    4.825264   7.200364   4.616603   8.779191  14.746665
    29  H    7.351965   5.243368   7.794655   3.421063   4.306812
    30  H    6.741125   4.696580   7.460844   3.433289   4.307265
    31  H    6.390143   8.745432   5.328884   9.956823  15.906196
    32  H    2.510799   4.802772   2.701288   6.357352  12.307348
    33  H    4.945220   6.594094   2.692107   6.893035  12.478473
    34  H    4.621583   4.458814   3.168946   3.283553   8.100477
    35  H    2.049469   2.049662   4.510983   4.440369  10.055057
    36  H    7.459706   9.447517   5.436839   9.927943  15.406211
    37  H    7.418194   9.559750   5.806908  10.355912  16.136111
    38  H    6.939983   8.812059   4.997008   9.267414  14.838698
    39  H    4.904847   2.550774   6.136540   2.087362   5.886297
    40  H    5.274927   2.986464   6.309016   2.074876   5.850657
    41  H    4.827560   3.269750   4.784625   1.009573   5.834685
                   26         27         28         29         30
    26  H    0.000000
    27  H    4.310034   0.000000
    28  H   14.168669  13.323118   0.000000
    29  H    2.481625   4.977239  12.014289   0.000000
    30  H    4.976640   2.482534  11.001155   4.317648   0.000000
    31  H   15.145442  14.718139   2.480257  13.025431  12.523691
    32  H   11.767553  10.898226   2.468824   9.643311   8.557423
    33  H   11.517675  11.731036   4.974643   9.576444   9.831003
    34  H    7.358173   7.482280   7.716804   5.758149   5.914638
    35  H    9.358452   8.793871   6.213034   7.100933   6.335667
    36  H   14.572822  14.526604   5.157034  12.701166  12.646579
    37  H   15.133598  15.283039   4.754714  13.082315  13.253795
    38  H   13.751632  14.172948   5.493395  11.787787  12.276125
    39  H    5.482319   4.771578   9.578068   3.694245   2.517672
    40  H    4.714092   5.474447  10.078222   2.449846   3.708681
    41  H    5.193804   5.138815   9.079535   3.514333   3.430655
                   31         32         33         34         35
    31  H    0.000000
    32  H    4.294994   0.000000
    33  H    4.308418   4.325939   0.000000
    34  H    8.187280   5.687789   4.423629   0.000000
    35  H    8.075803   4.097948   6.955976   6.032770   0.000000
    36  H    3.177908   5.904517   3.143531   7.317099   9.448679
    37  H    2.491041   5.878841   3.690884   8.104499   9.266125
    38  H    3.720578   5.879349   2.453909   6.792145   8.873811
    39  H   11.134550   7.126280   8.606906   5.284430   4.200819
    40  H   11.378928   7.685885   8.491092   5.196349   4.713472
    41  H   10.109075   6.696099   6.801667   2.738321   5.292519
                   36         37         38         39         40
    36  H    0.000000
    37  H    1.765961   0.000000
    38  H    1.766400   1.768518   0.000000
    39  H   11.553681  11.862685  10.954589   0.000000
    40  H   11.578826  11.793787  10.738936   1.744973   0.000000
    41  H    9.798322  10.385707   9.206191   2.824577   2.844324
                   41
    41  H    0.000000
 Stoichiometry    C19H17N5
 Framework group  C1[X(C19H17N5)]
 Deg. of freedom   117
 Full point group                 C1      NOp   1
 Largest Abelian subgroup         C1      NOp   1
 Largest concise Abelian subgroup C1      NOp   1
                         Standard orientation:                         
 ---------------------------------------------------------------------
 Center     Atomic      Atomic             Coordinates (Angstroms)
 Number     Number       Type             X           Y           Z
 ---------------------------------------------------------------------
      1          6           0       -7.321129   -1.131497    0.561288
      2          6           0       -6.799454   -1.304319   -0.735336
      3          6           0       -6.634609   -0.331131    1.494984
      4          6           0        5.583609    1.300324    0.719472
      5          6           0       -5.592253   -0.676394   -1.098910
      6          6           0       -5.427720    0.297587    1.131473
      7          6           0        6.455977    0.258533    0.352651
      8          6           0        4.189961    1.113245    0.649166
      9          6           0        4.539017   -1.162073   -0.154774
     10          6           0        0.431042   -1.445284    0.203525
     11          6           0        0.183057    2.542684   -0.564084
     12          6           0        0.046349   -0.099367   -0.085126
     13          6           0       -4.904012    0.130449   -0.168737
     14          6           0        5.935097   -0.975508   -0.086611
     15          6           0        3.655531   -0.120866    0.214953
     16          6           0        1.260601    0.635412   -0.119600
     17          6           0       -1.136491    0.641648   -0.323792
     18          6           0        6.865851   -2.101671   -0.486736
     19          6           0       -3.605162    0.811533   -0.569471
     20          7           0        1.730905   -1.556659    0.338049
     21          7           0        1.374793    1.977263   -0.350077
     22          7           0       -1.025710    1.971360   -0.570877
     23          7           0        2.251105   -0.310865    0.136859
     24          7           0       -2.398965    0.029777   -0.321323
     25          1           0       -8.247121   -1.612898    0.839529
     26          1           0       -7.325384   -1.917859   -1.451759
     27          1           0       -7.033546   -0.199482    2.490119
     28          1           0        5.983913    2.246709    1.052275
     29          1           0       -5.199983   -0.810867   -2.096510
     30          1           0       -4.906414    0.910270    1.852362
     31          1           0        7.523741    0.412151    0.408070
     32          1           0        3.538940    1.930091    0.922067
     33          1           0        4.150327   -2.113248   -0.489091
     34          1           0       -0.194313   -2.318232    0.317492
     35          1           0        0.198241    3.604555   -0.759918
     36          1           0        7.110559   -2.738475    0.364079
     37          1           0        7.796090   -1.698040   -0.887384
     38          1           0        6.401297   -2.721811   -1.253585
     39          1           0       -3.517325    1.773076   -0.061971
     40          1           0       -3.652922    1.032017   -1.635940
     41          1           0       -2.502564   -0.853918    0.155736
 ---------------------------------------------------------------------
 Rotational constants (GHZ):           0.8195991           0.0800463           0.0757261
 Leave Link  202 at Tue Jan 18 06:31:11 2022, MaxMem=  1073741824 cpu:               0.0 elap:               0.0
 (Enter /scratch/xp2042/Softs/Gaussian16-A03-AVX2_linux64/g16/l301.exe)
 Standard basis: 6-31G(d) (6D, 7F)
 Ernie: Thresh=  0.10000D-02 Tol=  0.10000D-05 Strict=F.
 There are   394 symmetry adapted cartesian basis functions of A   symmetry.
 There are   394 symmetry adapted basis functions of A   symmetry.
   394 basis functions,   740 primitive gaussians,   394 cartesian basis functions
    83 alpha electrons       83 beta electrons
       nuclear repulsion energy      1778.6863074350 Hartrees.
 IExCor=  402 DFT=T Ex+Corr=B3LYP ExCW=0 ScaHFX=  0.200000
 ScaDFX=  0.800000  0.720000  1.000000  0.810000 ScalE2=  1.000000  1.000000
 IRadAn=      5 IRanWt=     -1 IRanGd=            0 ICorTp=0 IEmpDi=  4
 NAtoms=   41 NActive=   41 NUniq=   41 SFac= 1.00D+00 NAtFMM=   60 NAOKFM=F Big=F
 Integral buffers will be    131072 words long.
 Raffenetti 2 integral format.
 Two-electron integral symmetry is turned on.
 Leave Link  301 at Tue Jan 18 06:31:11 2022, MaxMem=  1073741824 cpu:               0.1 elap:               0.0
 (Enter /scratch/xp2042/Softs/Gaussian16-A03-AVX2_linux64/g16/l302.exe)
 NPDir=0 NMtPBC=     1 NCelOv=     1 NCel=       1 NClECP=     1 NCelD=      1
         NCelK=      1 NCelE2=     1 NClLst=     1 CellRange=     0.0.
 One-electron integrals computed using PRISM.
 One-electron integral symmetry used in STVInt
 NBasis=   394 RedAO= T EigKep=  4.59D-04  NBF=   394
 NBsUse=   394 1.00D-06 EigRej= -1.00D+00 NBFU=   394
 Precomputing XC quadrature grid using
 IXCGrd= 4 IRadAn=           5 IRanWt=          -1 IRanGd=           0 AccXCQ= 0.00D+00.
 Generated NRdTot=       0 NPtTot=           0 NUsed=           0 NTot=          32
 NSgBfM=   384   384   384   384   384 MxSgAt=    41 MxSgA2=    41.
 Leave Link  302 at Tue Jan 18 06:31:13 2022, MaxMem=  1073741824 cpu:               1.7 elap:               1.7
 (Enter /scratch/xp2042/Softs/Gaussian16-A03-AVX2_linux64/g16/l303.exe)
 DipDrv:  MaxL=1.
 Leave Link  303 at Tue Jan 18 06:31:13 2022, MaxMem=  1073741824 cpu:               0.0 elap:               0.1
 (Enter /scratch/xp2042/Softs/Gaussian16-A03-AVX2_linux64/g16/l401.exe)
 ExpMin= 1.61D-01 ExpMax= 4.17D+03 ExpMxC= 6.27D+02 IAcc=3 IRadAn=         5 AccDes= 0.00D+00
 Harris functional with IExCor=  402 and IRadAn=       5 diagonalized for initial guess.
 HarFok:  IExCor=  402 AccDes= 0.00D+00 IRadAn=         5 IDoV= 1 UseB2=F ITyADJ=14
 ICtDFT=  3500011 ScaDFX=  1.000000  1.000000  1.000000  1.000000
 FoFCou: FMM=F IPFlag=           0 FMFlag=      100000 FMFlg1=           0
         NFxFlg=           0 DoJE=T BraDBF=F KetDBF=T FulRan=T
         wScrn=  0.000000 ICntrl=       500 IOpCl=  0 I1Cent=   200000004 NGrid=           0
         NMat0=    1 NMatS0=      1 NMatT0=    0 NMatD0=    1 NMtDS0=    0 NMtDT0=    0
 Petite list used in FoFCou.
 Harris En= -1007.95491937814    
 JPrj=0 DoOrth=F DoCkMO=F.
 Leave Link  401 at Tue Jan 18 06:31:25 2022, MaxMem=  1073741824 cpu:              11.9 elap:              12.0
 (Enter /scratch/xp2042/Softs/Gaussian16-A03-AVX2_linux64/g16/l502.exe)
 Integral symmetry usage will be decided dynamically.
 Closed shell SCF:
 Using DIIS extrapolation, IDIIS=  1040.
 NGot=  1073741824 LenX=  1073424657 LenY=  1073268980
 Requested convergence on RMS density matrix=1.00D-08 within 128 cycles.
 Requested convergence on MAX density matrix=1.00D-06.
 Requested convergence on             energy=1.00D-06.
 No special actions if energy rises.
 Fock matrices will be formed incrementally for  20 cycles.
 Integral accuracy reduced to 1.0D-05 until final iterations.

 Cycle   1  Pass 0  IDiag  1:
 FoFJK:  IHMeth= 1 ICntrl=       0 DoSepK=F KAlg= 0 I1Cent=           0 FoldK=F
 IRaf= 620000000 NMat=       1 IRICut=       1 DoRegI=T DoRafI=F ISym2E= 0 IDoP0=0 IntGTp=1.
 FoFCou: FMM=F IPFlag=           0 FMFlag=      100000 FMFlg1=           0
         NFxFlg=           0 DoJE=F BraDBF=F KetDBF=F FulRan=T
         wScrn=  0.000000 ICntrl=         0 IOpCl=  0 I1Cent=           0 NGrid=           0
         NMat0=    1 NMatS0=      1 NMatT0=    0 NMatD0=    1 NMtDS0=    0 NMtDT0=    0
 Symmetry not used in FoFCou.
 E= -1007.55110136661    
 DIIS: error= 3.65D-02 at cycle   1 NSaved=   1.
 NSaved= 1 IEnMin= 1 EnMin= -1007.55110136661     IErMin= 1 ErrMin= 3.65D-02
 ErrMax= 3.65D-02  0.00D+00 EMaxC= 1.00D-01 BMatC= 4.54D-01 BMatP= 4.54D-01
 IDIUse=3 WtCom= 6.35D-01 WtEn= 3.65D-01
 Coeff-Com:  0.100D+01
 Coeff-En:   0.100D+01
 Coeff:      0.100D+01
 Gap=     0.258 Goal=   None    Shift=    0.000
 GapD=    0.258 DampG=1.000 DampE=0.500 DampFc=0.5000 IDamp=-1.
 Damping current iteration by 5.00D-01
 RMSDP=4.04D-03 MaxDP=1.29D-01              OVMax= 2.23D-01

 Cycle   2  Pass 0  IDiag  1:
 RMSU=  1.98D-03    CP:  9.77D-01
 E= -1007.74789337442     Delta-E=       -0.196792007811 Rises=F Damp=T
 DIIS: error= 6.94D-03 at cycle   2 NSaved=   2.
 NSaved= 2 IEnMin= 2 EnMin= -1007.74789337442     IErMin= 2 ErrMin= 6.94D-03
 ErrMax= 6.94D-03  0.00D+00 EMaxC= 1.00D-01 BMatC= 4.47D-02 BMatP= 4.54D-01
 IDIUse=3 WtCom= 9.31D-01 WtEn= 6.94D-02
 Coeff-Com:  0.821D-01 0.918D+00
 Coeff-En:   0.134D+00 0.866D+00
 Coeff:      0.857D-01 0.914D+00
 Gap=     0.205 Goal=   None    Shift=    0.000
 RMSDP=1.36D-03 MaxDP=8.92D-02 DE=-1.97D-01 OVMax= 2.29D-01

 Cycle   3  Pass 0  IDiag  1:
 RMSU=  1.30D-03    CP:  9.64D-01  8.52D-01
 E= -1007.95819302385     Delta-E=       -0.210299649432 Rises=F Damp=F
 DIIS: error= 1.09D-02 at cycle   3 NSaved=   3.
 NSaved= 3 IEnMin= 3 EnMin= -1007.95819302385     IErMin= 2 ErrMin= 6.94D-03
 ErrMax= 1.09D-02  0.00D+00 EMaxC= 1.00D-01 BMatC= 5.92D-02 BMatP= 4.47D-02
 IDIUse=2 WtCom= 0.00D+00 WtEn= 1.00D+00
 Coeff-En:   0.000D+00 0.000D+00 0.100D+01
 Coeff:      0.000D+00 0.000D+00 0.100D+01
 Gap=     0.217 Goal=   None    Shift=    0.000
 RMSDP=2.09D-03 MaxDP=1.54D-01 DE=-2.10D-01 OVMax= 1.87D-01

 Cycle   4  Pass 0  IDiag  1:
 RMSU=  1.23D-03    CP:  9.68D-01  1.23D+00 -1.65D-01
 E= -1007.70941688951     Delta-E=        0.248776134338 Rises=F Damp=F
 DIIS: error= 2.64D-02 at cycle   4 NSaved=   4.
 NSaved= 4 IEnMin= 3 EnMin= -1007.95819302385     IErMin= 2 ErrMin= 6.94D-03
 ErrMax= 2.64D-02  0.00D+00 EMaxC= 1.00D-01 BMatC= 3.09D-01 BMatP= 4.47D-02
 IDIUse=2 WtCom= 0.00D+00 WtEn= 1.00D+00
 Coeff-En:   0.000D+00 0.000D+00 0.781D+00 0.219D+00
 Coeff:      0.000D+00 0.000D+00 0.781D+00 0.219D+00
 Gap=     0.200 Goal=   None    Shift=    0.000
 RMSDP=1.08D-03 MaxDP=7.61D-02 DE= 2.49D-01 OVMax= 1.25D-01

 Cycle   5  Pass 0  IDiag  1:
 RMSU=  1.81D-04    CP:  9.67D-01  1.01D+00  4.11D-01  4.90D-01
 E= -1007.99585830830     Delta-E=       -0.286441418786 Rises=F Damp=F
 DIIS: error= 6.95D-03 at cycle   5 NSaved=   5.
 NSaved= 5 IEnMin= 5 EnMin= -1007.99585830830     IErMin= 2 ErrMin= 6.94D-03
 ErrMax= 6.95D-03  0.00D+00 EMaxC= 1.00D-01 BMatC= 2.27D-02 BMatP= 4.47D-02
 IDIUse=3 WtCom= 9.31D-01 WtEn= 6.95D-02
 Coeff-Com:  0.478D-02 0.296D-02 0.328D+00-0.505D-01 0.715D+00
 Coeff-En:   0.000D+00 0.000D+00 0.323D+00 0.000D+00 0.677D+00
 Coeff:      0.445D-02 0.276D-02 0.328D+00-0.470D-01 0.712D+00
 Gap=     0.178 Goal=   None    Shift=    0.000
 RMSDP=4.01D-04 MaxDP=3.11D-02 DE=-2.86D-01 OVMax= 4.61D-02

 Cycle   6  Pass 0  IDiag  1:
 RMSU=  8.27D-05    CP:  9.66D-01  9.46D-01  6.26D-01  3.02D-01  7.07D-01
 E= -1008.01805114889     Delta-E=       -0.022192840592 Rises=F Damp=F
 DIIS: error= 9.58D-04 at cycle   6 NSaved=   6.
 NSaved= 6 IEnMin= 6 EnMin= -1008.01805114889     IErMin= 6 ErrMin= 9.58D-04
 ErrMax= 9.58D-04  0.00D+00 EMaxC= 1.00D-01 BMatC= 2.89D-04 BMatP= 2.27D-02
 IDIUse=3 WtCom= 9.90D-01 WtEn= 9.58D-03
 Coeff-Com:  0.270D-03 0.163D-02 0.143D+00-0.640D-01 0.465D+00 0.454D+00
 Coeff-En:   0.000D+00 0.000D+00 0.000D+00 0.000D+00 0.000D+00 0.100D+01
 Coeff:      0.267D-03 0.161D-02 0.142D+00-0.634D-01 0.460D+00 0.459D+00
 Gap=     0.176 Goal=   None    Shift=    0.000
 RMSDP=5.04D-05 MaxDP=3.21D-03 DE=-2.22D-02 OVMax= 5.28D-03

 Cycle   7  Pass 0  IDiag  1:
 RMSU=  1.87D-05    CP:  9.66D-01  9.47D-01  6.31D-01  3.01D-01  8.00D-01
                    CP:  4.80D-01
 E= -1008.01831938001     Delta-E=       -0.000268231117 Rises=F Damp=F
 DIIS: error= 9.03D-05 at cycle   7 NSaved=   7.
 NSaved= 7 IEnMin= 7 EnMin= -1008.01831938001     IErMin= 7 ErrMin= 9.03D-05
 ErrMax= 9.03D-05  0.00D+00 EMaxC= 1.00D-01 BMatC= 9.55D-06 BMatP= 2.89D-04
 IDIUse=1 WtCom= 1.00D+00 WtEn= 0.00D+00
 Coeff-Com: -0.272D-04 0.659D-03 0.628D-01-0.323D-01 0.217D+00 0.253D+00
 Coeff-Com:  0.499D+00
 Coeff:     -0.272D-04 0.659D-03 0.628D-01-0.323D-01 0.217D+00 0.253D+00
 Coeff:      0.499D+00
 Gap=     0.176 Goal=   None    Shift=    0.000
 RMSDP=1.00D-05 MaxDP=5.31D-04 DE=-2.68D-04 OVMax= 9.58D-04

 Cycle   8  Pass 0  IDiag  1:
 RMSU=  5.55D-06    CP:  9.66D-01  9.47D-01  6.32D-01  3.01D-01  8.00D-01
                    CP:  5.21D-01  6.05D-01
 E= -1008.01832785000     Delta-E=       -0.000008469990 Rises=F Damp=F
 DIIS: error= 3.42D-05 at cycle   8 NSaved=   8.
 NSaved= 8 IEnMin= 8 EnMin= -1008.01832785000     IErMin= 8 ErrMin= 3.42D-05
 ErrMax= 3.42D-05  0.00D+00 EMaxC= 1.00D-01 BMatC= 9.39D-07 BMatP= 9.55D-06
 IDIUse=1 WtCom= 1.00D+00 WtEn= 0.00D+00
 Coeff-Com:  0.443D-04-0.107D-03 0.171D-01-0.957D-02 0.602D-01 0.818D-01
 Coeff-Com:  0.269D+00 0.582D+00
 Coeff:      0.443D-04-0.107D-03 0.171D-01-0.957D-02 0.602D-01 0.818D-01
 Coeff:      0.269D+00 0.582D+00
 Gap=     0.176 Goal=   None    Shift=    0.000
 RMSDP=3.15D-06 MaxDP=1.83D-04 DE=-8.47D-06 OVMax= 2.97D-04

 Initial convergence to 1.0D-05 achieved.  Increase integral accuracy.
 Cycle   9  Pass 1  IDiag  1:
 E= -1008.01833810836     Delta-E=       -0.000010258359 Rises=F Damp=F
 DIIS: error= 1.00D-04 at cycle   1 NSaved=   1.
 NSaved= 1 IEnMin= 1 EnMin= -1008.01833810836     IErMin= 1 ErrMin= 1.00D-04
 ErrMax= 1.00D-04  0.00D+00 EMaxC= 1.00D-01 BMatC= 1.00D-06 BMatP= 1.00D-06
 IDIUse=1 WtCom= 1.00D+00 WtEn= 0.00D+00
 Coeff-Com:  0.100D+01
 Coeff:      0.100D+01
 Gap=     0.176 Goal=   None    Shift=    0.000
 RMSDP=3.15D-06 MaxDP=1.83D-04 DE=-1.03D-05 OVMax= 3.14D-04

 Cycle  10  Pass 1  IDiag  1:
 RMSU=  4.02D-05    CP:  1.00D+00
 E= -1008.01833851973     Delta-E=       -0.000000411369 Rises=F Damp=F
 DIIS: error= 2.62D-05 at cycle   2 NSaved=   2.
 NSaved= 2 IEnMin= 2 EnMin= -1008.01833851973     IErMin= 2 ErrMin= 2.62D-05
 ErrMax= 2.62D-05  0.00D+00 EMaxC= 1.00D-01 BMatC= 5.42D-07 BMatP= 1.00D-06
 IDIUse=1 WtCom= 1.00D+00 WtEn= 0.00D+00
 Coeff-Com:  0.389D+00 0.611D+00
 Coeff:      0.389D+00 0.611D+00
 Gap=     0.176 Goal=   None    Shift=    0.000
 RMSDP=3.87D-06 MaxDP=1.95D-04 DE=-4.11D-07 OVMax= 3.88D-04

 Cycle  11  Pass 1  IDiag  1:
 RMSU=  3.87D-06    CP:  1.00D+00  1.00D+00
 E= -1008.01833864731     Delta-E=       -0.000000127579 Rises=F Damp=F
 DIIS: error= 2.53D-05 at cycle   3 NSaved=   3.
 NSaved= 3 IEnMin= 3 EnMin= -1008.01833864731     IErMin= 3 ErrMin= 2.53D-05
 ErrMax= 2.53D-05  0.00D+00 EMaxC= 1.00D-01 BMatC= 4.20D-07 BMatP= 5.42D-07
 IDIUse=1 WtCom= 1.00D+00 WtEn= 0.00D+00
 Coeff-Com:  0.124D-01 0.465D+00 0.522D+00
 Coeff:      0.124D-01 0.465D+00 0.522D+00
 Gap=     0.176 Goal=   None    Shift=    0.000
 RMSDP=1.95D-06 MaxDP=1.14D-04 DE=-1.28D-07 OVMax= 1.97D-04

 Cycle  12  Pass 1  IDiag  1:
 RMSU=  5.72D-07    CP:  1.00D+00  1.01D+00  5.25D-01
 E= -1008.01833908177     Delta-E=       -0.000000434470 Rises=F Damp=F
 DIIS: error= 3.09D-06 at cycle   4 NSaved=   4.
 NSaved= 4 IEnMin= 4 EnMin= -1008.01833908177     IErMin= 4 ErrMin= 3.09D-06
 ErrMax= 3.09D-06  0.00D+00 EMaxC= 1.00D-01 BMatC= 1.15D-08 BMatP= 4.20D-07
 IDIUse=1 WtCom= 1.00D+00 WtEn= 0.00D+00
 Coeff-Com: -0.298D-02 0.260D+00 0.311D+00 0.432D+00
 Coeff:     -0.298D-02 0.260D+00 0.311D+00 0.432D+00
 Gap=     0.176 Goal=   None    Shift=    0.000
 RMSDP=3.28D-07 MaxDP=1.87D-05 DE=-4.34D-07 OVMax= 3.67D-05

 Cycle  13  Pass 1  IDiag  1:
 RMSU=  1.13D-07    CP:  1.00D+00  1.01D+00  5.40D-01  4.70D-01
 E= -1008.01833909290     Delta-E=       -0.000000011123 Rises=F Damp=F
 DIIS: error= 9.40D-07 at cycle   5 NSaved=   5.
 NSaved= 5 IEnMin= 5 EnMin= -1008.01833909290     IErMin= 5 ErrMin= 9.40D-07
 ErrMax= 9.40D-07  0.00D+00 EMaxC= 1.00D-01 BMatC= 4.08D-10 BMatP= 1.15D-08
 IDIUse=1 WtCom= 1.00D+00 WtEn= 0.00D+00
 Coeff-Com: -0.224D-02 0.148D+00 0.179D+00 0.268D+00 0.407D+00
 Coeff:     -0.224D-02 0.148D+00 0.179D+00 0.268D+00 0.407D+00
 Gap=     0.176 Goal=   None    Shift=    0.000
 RMSDP=5.97D-08 MaxDP=2.42D-06 DE=-1.11D-08 OVMax= 6.54D-06

 Cycle  14  Pass 1  IDiag  1:
 RMSU=  3.87D-08    CP:  1.00D+00  1.01D+00  5.40D-01  4.75D-01  5.98D-01
 E= -1008.01833909331     Delta-E=       -0.000000000412 Rises=F Damp=F
 DIIS: error= 2.00D-07 at cycle   6 NSaved=   6.
 NSaved= 6 IEnMin= 6 EnMin= -1008.01833909331     IErMin= 6 ErrMin= 2.00D-07
 ErrMax= 2.00D-07  0.00D+00 EMaxC= 1.00D-01 BMatC= 1.19D-11 BMatP= 4.08D-10
 IDIUse=1 WtCom= 1.00D+00 WtEn= 0.00D+00
 Coeff-Com: -0.111D-02 0.707D-01 0.855D-01 0.130D+00 0.225D+00 0.490D+00
 Coeff:     -0.111D-02 0.707D-01 0.855D-01 0.130D+00 0.225D+00 0.490D+00
 Gap=     0.176 Goal=   None    Shift=    0.000
 RMSDP=1.31D-08 MaxDP=7.07D-07 DE=-4.12D-10 OVMax= 1.39D-06

 Cycle  15  Pass 1  IDiag  1:
 RMSU=  1.15D-08    CP:  1.00D+00  1.01D+00  5.40D-01  4.71D-01  6.26D-01
                    CP:  8.75D-01
 E= -1008.01833909329     Delta-E=        0.000000000022 Rises=F Damp=F
 DIIS: error= 6.95D-08 at cycle   7 NSaved=   7.
 NSaved= 7 IEnMin= 6 EnMin= -1008.01833909331     IErMin= 7 ErrMin= 6.95D-08
 ErrMax= 6.95D-08  0.00D+00 EMaxC= 1.00D-01 BMatC= 2.16D-12 BMatP= 1.19D-11
 IDIUse=1 WtCom= 1.00D+00 WtEn= 0.00D+00
 Coeff-Com: -0.219D-03 0.128D-01 0.158D-01 0.245D-01 0.535D-01 0.304D+00
 Coeff-Com:  0.590D+00
 Coeff:     -0.219D-03 0.128D-01 0.158D-01 0.245D-01 0.535D-01 0.304D+00
 Coeff:      0.590D+00
 Gap=     0.176 Goal=   None    Shift=    0.000
 RMSDP=5.43D-09 MaxDP=4.36D-07 DE= 2.18D-11 OVMax= 7.07D-07

 SCF Done:  E(RB3LYP) =  -1008.01833909     A.U. after   15 cycles
            NFock= 15  Conv=0.54D-08     -V/T= 2.0101
 KE= 9.979150759168D+02 PE=-5.894975611896D+03 EE= 2.110355889451D+03
 Leave Link  502 at Tue Jan 18 06:35:15 2022, MaxMem=  1073741824 cpu:             228.6 elap:             229.5
 (Enter /scratch/xp2042/Softs/Gaussian16-A03-AVX2_linux64/g16/l601.exe)
 Copying SCF densities to generalized density rwf, IOpCl= 0 IROHF=0.

 **********************************************************************

            Population analysis using the SCF density.

 **********************************************************************

 Orbital symmetries:
       Occupied  (A) (A) (A) (A) (A) (A) (A) (A) (A) (A) (A) (A)
                 (A) (A) (A) (A) (A) (A) (A) (A) (A) (A) (A) (A)
                 (A) (A) (A) (A) (A) (A) (A) (A) (A) (A) (A) (A)
                 (A) (A) (A) (A) (A) (A) (A) (A) (A) (A) (A) (A)
                 (A) (A) (A) (A) (A) (A) (A) (A) (A) (A) (A) (A)
                 (A) (A) (A) (A) (A) (A) (A) (A) (A) (A) (A) (A)
                 (A) (A) (A) (A) (A) (A) (A) (A) (A) (A) (A)
       Virtual   (A) (A) (A) (A) (A) (A) (A) (A) (A) (A) (A) (A)
                 (A) (A) (A) (A) (A) (A) (A) (A) (A) (A) (A) (A)
                 (A) (A) (A) (A) (A) (A) (A) (A) (A) (A) (A) (A)
                 (A) (A) (A) (A) (A) (A) (A) (A) (A) (A) (A) (A)
                 (A) (A) (A) (A) (A) (A) (A) (A) (A) (A) (A) (A)
                 (A) (A) (A) (A) (A) (A) (A) (A) (A) (A) (A) (A)
                 (A) (A) (A) (A) (A) (A) (A) (A) (A) (A) (A) (A)
                 (A) (A) (A) (A) (A) (A) (A) (A) (A) (A) (A) (A)
                 (A) (A) (A) (A) (A) (A) (A) (A) (A) (A) (A) (A)
                 (A) (A) (A) (A) (A) (A) (A) (A) (A) (A) (A) (A)
                 (A) (A) (A) (A) (A) (A) (A) (A) (A) (A) (A) (A)
                 (A) (A) (A) (A) (A) (A) (A) (A) (A) (A) (A) (A)
                 (A) (A) (A) (A) (A) (A) (A) (A) (A) (A) (A) (A)
                 (A) (A) (A) (A) (A) (A) (A) (A) (A) (A) (A) (A)
                 (A) (A) (A) (A) (A) (A) (A) (A) (A) (A) (A) (A)
                 (A) (A) (A) (A) (A) (A) (A) (A) (A) (A) (A) (A)
                 (A) (A) (A) (A) (A) (A) (A) (A) (A) (A) (A) (A)
                 (A) (A) (A) (A) (A) (A) (A) (A) (A) (A) (A) (A)
                 (A) (A) (A) (A) (A) (A) (A) (A) (A) (A) (A) (A)
                 (A) (A) (A) (A) (A) (A) (A) (A) (A) (A) (A) (A)
                 (A) (A) (A) (A) (A) (A) (A) (A) (A) (A) (A) (A)
                 (A) (A) (A) (A) (A) (A) (A) (A) (A) (A) (A) (A)
                 (A) (A) (A) (A) (A) (A) (A) (A) (A) (A) (A) (A)
                 (A) (A) (A) (A) (A) (A) (A) (A) (A) (A) (A) (A)
                 (A) (A) (A) (A) (A) (A) (A) (A) (A) (A) (A) (A)
                 (A) (A) (A) (A) (A) (A) (A) (A) (A) (A) (A)
 The electronic state is 1-A.
 Alpha  occ. eigenvalues --  -14.41870 -14.36994 -14.36458 -14.33109 -14.32561
 Alpha  occ. eigenvalues --  -10.28512 -10.26423 -10.25204 -10.23400 -10.22672
 Alpha  occ. eigenvalues --  -10.22312 -10.21064 -10.20253 -10.20232 -10.20207
 Alpha  occ. eigenvalues --  -10.20180 -10.20149 -10.20079 -10.19677 -10.18826
 Alpha  occ. eigenvalues --  -10.18637 -10.18555 -10.18345 -10.17935  -1.05620
 Alpha  occ. eigenvalues --   -0.98112  -0.93850  -0.87757  -0.86455  -0.85495
 Alpha  occ. eigenvalues --   -0.82484  -0.79660  -0.76782  -0.76111  -0.75147
 Alpha  occ. eigenvalues --   -0.73362  -0.69564  -0.68182  -0.66401  -0.64390
 Alpha  occ. eigenvalues --   -0.62883  -0.61478  -0.59655  -0.58668  -0.58212
 Alpha  occ. eigenvalues --   -0.54610  -0.52447  -0.51932  -0.50215  -0.49660
 Alpha  occ. eigenvalues --   -0.48237  -0.47601  -0.46985  -0.46221  -0.45404
 Alpha  occ. eigenvalues --   -0.45021  -0.43939  -0.43173  -0.42769  -0.42381
 Alpha  occ. eigenvalues --   -0.42040  -0.41697  -0.40981  -0.39978  -0.39361
 Alpha  occ. eigenvalues --   -0.38147  -0.36622  -0.35477  -0.35265  -0.35001
 Alpha  occ. eigenvalues --   -0.34901  -0.33844  -0.33455  -0.30986  -0.28649
 Alpha  occ. eigenvalues --   -0.28165  -0.27595  -0.26149  -0.25842  -0.25047
 Alpha  occ. eigenvalues --   -0.23697  -0.23030  -0.21414
 Alpha virt. eigenvalues --   -0.03785  -0.01778  -0.01649  -0.01138   0.00240
 Alpha virt. eigenvalues --    0.01771   0.05191   0.07741   0.08752   0.10519
 Alpha virt. eigenvalues --    0.11907   0.12686   0.12983   0.13924   0.14282
 Alpha virt. eigenvalues --    0.14416   0.15037   0.15285   0.15664   0.15995
 Alpha virt. eigenvalues --    0.16975   0.17332   0.17992   0.18007   0.18348
 Alpha virt. eigenvalues --    0.18399   0.19751   0.20450   0.20892   0.22337
 Alpha virt. eigenvalues --    0.23076   0.24440   0.24874   0.24934   0.27967
 Alpha virt. eigenvalues --    0.28856   0.29112   0.30732   0.31209   0.32392
 Alpha virt. eigenvalues --    0.32744   0.32965   0.33355   0.34094   0.35943
 Alpha virt. eigenvalues --    0.37939   0.39412   0.40732   0.43521   0.45010
 Alpha virt. eigenvalues --    0.45572   0.48740   0.50341   0.50956   0.51322
 Alpha virt. eigenvalues --    0.51788   0.52295   0.52645   0.52703   0.54039
 Alpha virt. eigenvalues --    0.54188   0.54531   0.55191   0.55715   0.56037
 Alpha virt. eigenvalues --    0.56066   0.57722   0.58216   0.58337   0.58868
 Alpha virt. eigenvalues --    0.59159   0.59411   0.59535   0.60179   0.60280
 Alpha virt. eigenvalues --    0.61030   0.61433   0.61828   0.62008   0.62530
 Alpha virt. eigenvalues --    0.63019   0.63863   0.64562   0.65111   0.66354
 Alpha virt. eigenvalues --    0.66704   0.67167   0.67505   0.68775   0.69473
 Alpha virt. eigenvalues --    0.70443   0.72104   0.73325   0.74638   0.75409
 Alpha virt. eigenvalues --    0.75878   0.77607   0.78976   0.79204   0.79653
 Alpha virt. eigenvalues --    0.80654   0.81879   0.82030   0.82611   0.82910
 Alpha virt. eigenvalues --    0.83551   0.83848   0.84224   0.85301   0.85989
 Alpha virt. eigenvalues --    0.86546   0.87032   0.87195   0.88489   0.89271
 Alpha virt. eigenvalues --    0.89492   0.90715   0.91052   0.91231   0.91494
 Alpha virt. eigenvalues --    0.91956   0.93098   0.93662   0.94033   0.94921
 Alpha virt. eigenvalues --    0.95597   0.96268   0.97499   0.98294   0.98904
 Alpha virt. eigenvalues --    1.00075   1.01123   1.05044   1.05137   1.05898
 Alpha virt. eigenvalues --    1.08630   1.09890   1.10348   1.11105   1.13651
 Alpha virt. eigenvalues --    1.14882   1.15253   1.15671   1.16599   1.18033
 Alpha virt. eigenvalues --    1.19061   1.19464   1.21838   1.23817   1.24903
 Alpha virt. eigenvalues --    1.25649   1.26563   1.27627   1.30470   1.33205
 Alpha virt. eigenvalues --    1.33970   1.35675   1.36791   1.37554   1.38663
 Alpha virt. eigenvalues --    1.39921   1.40547   1.41610   1.42713   1.44097
 Alpha virt. eigenvalues --    1.45925   1.46555   1.46663   1.47355   1.48162
 Alpha virt. eigenvalues --    1.48470   1.49397   1.49728   1.50038   1.50316
 Alpha virt. eigenvalues --    1.51398   1.53612   1.55729   1.56190   1.59794
 Alpha virt. eigenvalues --    1.63404   1.63827   1.66748   1.70774   1.73140
 Alpha virt. eigenvalues --    1.75001   1.75745   1.77104   1.77547   1.78260
 Alpha virt. eigenvalues --    1.79461   1.81300   1.82637   1.82743   1.84001
 Alpha virt. eigenvalues --    1.86274   1.86987   1.87975   1.88594   1.89564
 Alpha virt. eigenvalues --    1.90037   1.90804   1.91276   1.91987   1.92849
 Alpha virt. eigenvalues --    1.96286   1.96813   1.97048   1.99561   2.02204
 Alpha virt. eigenvalues --    2.02609   2.04184   2.06736   2.07356   2.08401
 Alpha virt. eigenvalues --    2.10589   2.10708   2.12141   2.12426   2.13288
 Alpha virt. eigenvalues --    2.14021   2.15244   2.16224   2.17185   2.18042
 Alpha virt. eigenvalues --    2.19319   2.21387   2.21823   2.22021   2.23649
 Alpha virt. eigenvalues --    2.25731   2.26397   2.27286   2.27655   2.28180
 Alpha virt. eigenvalues --    2.28546   2.29914   2.30955   2.32244   2.33884
 Alpha virt. eigenvalues --    2.34638   2.35995   2.36591   2.37094   2.40576
 Alpha virt. eigenvalues --    2.40730   2.42110   2.47067   2.47755   2.50643
 Alpha virt. eigenvalues --    2.52526   2.55899   2.56390   2.58020   2.59339
 Alpha virt. eigenvalues --    2.60829   2.61797   2.63013   2.64277   2.65465
 Alpha virt. eigenvalues --    2.66207   2.68748   2.69713   2.70835   2.71133
 Alpha virt. eigenvalues --    2.71883   2.72976   2.74609   2.75210   2.76953
 Alpha virt. eigenvalues --    2.77742   2.79202   2.82002   2.83004   2.87355
 Alpha virt. eigenvalues --    2.90905   2.92420   2.94313   2.98754   3.00078
 Alpha virt. eigenvalues --    3.02392   3.14922   3.20110   3.32516   3.37050
 Alpha virt. eigenvalues --    3.40978   3.42040   3.87622   3.99159   4.06686
 Alpha virt. eigenvalues --    4.07234   4.08499   4.08769   4.10357   4.12194
 Alpha virt. eigenvalues --    4.12955   4.16274   4.18752   4.23703   4.24326
 Alpha virt. eigenvalues --    4.30358   4.31667   4.32574   4.34851   4.37151
 Alpha virt. eigenvalues --    4.39056   4.42962   4.46705   4.67866   4.68934
 Alpha virt. eigenvalues --    4.75983
          Condensed to atoms (all electrons):
               1          2          3          4          5          6
     1  C    4.855324   0.545329   0.544394   0.000000  -0.035510  -0.035321
     2  C    0.545329   4.872201  -0.026168   0.000000   0.521299  -0.042189
     3  C    0.544394  -0.026168   4.874437  -0.000000  -0.042014   0.519446
     4  C    0.000000   0.000000  -0.000000   4.887475  -0.000000   0.000000
     5  C   -0.035510   0.521299  -0.042014  -0.000000   4.953885  -0.044913
     6  C   -0.035321  -0.042189   0.519446   0.000000  -0.044913   4.958400
     7  C    0.000000   0.000000   0.000000   0.517716   0.000000   0.000000
     8  C    0.000000  -0.000000  -0.000000   0.519404  -0.000000  -0.000000
     9  C    0.000000  -0.000000   0.000000  -0.046679   0.000000  -0.000000
    10  C   -0.000000   0.000000   0.000000   0.000003   0.000000  -0.000000
    11  C    0.000000   0.000000   0.000000  -0.000004  -0.000000  -0.000000
    12  C    0.000000  -0.000000  -0.000000  -0.000004   0.000001  -0.000026
    13  C   -0.033085  -0.022050  -0.020633   0.000000   0.538253   0.538379
    14  C    0.000000   0.000000   0.000000  -0.013142   0.000000  -0.000000
    15  C   -0.000000   0.000000   0.000000  -0.004320   0.000000   0.000000
    16  C    0.000000   0.000000   0.000000  -0.000194  -0.000000  -0.000000
    17  C   -0.000000   0.000002   0.000002   0.000000   0.000034  -0.000061
    18  C    0.000000   0.000000   0.000000   0.006459   0.000000   0.000000
    19  C    0.000377   0.005566   0.005858   0.000000  -0.049255  -0.055180
    20  N    0.000000  -0.000000  -0.000000  -0.000084  -0.000000  -0.000000
    21  N    0.000000  -0.000000  -0.000000   0.000013  -0.000000  -0.000000
    22  N    0.000000  -0.000000  -0.000000  -0.000000  -0.000014  -0.000021
    23  N   -0.000000  -0.000000  -0.000000   0.004615   0.000000   0.000000
    24  N    0.000018  -0.000035  -0.000042   0.000000  -0.000777  -0.000312
    25  H    0.360591  -0.042728  -0.042707   0.000000   0.004591   0.004602
    26  H   -0.042390   0.358534   0.004409   0.000000  -0.039575   0.000725
    27  H   -0.042228   0.004395   0.358443   0.000000   0.000746  -0.039375
    28  H    0.000000   0.000000   0.000000   0.356814  -0.000000  -0.000000
    29  H    0.004555  -0.043874   0.000291   0.000000   0.357259   0.005520
    30  H    0.004554   0.000309  -0.043955   0.000000   0.005379   0.358349
    31  H    0.000000   0.000000   0.000000  -0.045915   0.000000   0.000000
    32  H   -0.000000   0.000000   0.000000  -0.040753   0.000000   0.000000
    33  H   -0.000000   0.000000   0.000000  -0.000019   0.000000  -0.000000
    34  H    0.000000   0.000000   0.000000  -0.000000   0.000000  -0.000000
    35  H   -0.000000   0.000000   0.000000  -0.000000   0.000000   0.000000
    36  H    0.000000   0.000000   0.000000  -0.000141   0.000000   0.000000
    37  H    0.000000   0.000000   0.000000   0.000147   0.000000   0.000000
    38  H    0.000000   0.000000   0.000000  -0.000179  -0.000000   0.000000
    39  H    0.000006  -0.000172   0.000085  -0.000000   0.004288  -0.006848
    40  H    0.000008   0.000072  -0.000201   0.000000  -0.007540   0.005024
    41  H   -0.000025  -0.000088  -0.000091  -0.000000   0.001704   0.002458
               7          8          9         10         11         12
     1  C    0.000000   0.000000   0.000000  -0.000000   0.000000   0.000000
     2  C    0.000000  -0.000000  -0.000000   0.000000   0.000000  -0.000000
     3  C    0.000000  -0.000000   0.000000   0.000000   0.000000  -0.000000
     4  C    0.517716   0.519404  -0.046679   0.000003  -0.000004  -0.000004
     5  C    0.000000  -0.000000   0.000000   0.000000  -0.000000   0.000001
     6  C    0.000000  -0.000000  -0.000000  -0.000000  -0.000000  -0.000026
     7  C    4.959856  -0.040105  -0.036389   0.000000   0.000000   0.000000
     8  C   -0.040105   4.989552  -0.069672  -0.000424  -0.000023   0.000762
     9  C   -0.036389  -0.069672   5.085732   0.000997   0.000010  -0.000993
    10  C    0.000000  -0.000424   0.000997   5.014761   0.001125   0.390951
    11  C    0.000000  -0.000023   0.000010   0.001125   4.669112  -0.038247
    12  C    0.000000   0.000762  -0.000993   0.390951  -0.038247   5.117269
    13  C   -0.000000   0.000000  -0.000000  -0.000012   0.000001  -0.000092
    14  C    0.545970  -0.036604   0.522326   0.000001  -0.000000  -0.000002
    15  C   -0.040554   0.534338   0.480548   0.006515   0.000147   0.009118
    16  C    0.000031  -0.005494   0.007859  -0.036873  -0.048776   0.399464
    17  C   -0.000000   0.000017  -0.000008  -0.071645  -0.051490   0.374046
    18  C   -0.061749   0.000646  -0.053574  -0.000000  -0.000000   0.000000
    19  C   -0.000000   0.000000   0.000000  -0.000104   0.000106   0.004617
    20  N    0.000020   0.002624   0.002768   0.432674  -0.000204   0.016363
    21  N    0.000004  -0.009510   0.000068   0.006796   0.449612  -0.059797
    22  N    0.000000  -0.000012  -0.000000   0.005682   0.442209  -0.033296
    23  N    0.000516  -0.049968  -0.053537  -0.138491   0.001996  -0.023341
    24  N    0.000000  -0.000000   0.000000  -0.004555   0.003572  -0.081154
    25  H    0.000000   0.000000   0.000000   0.000000   0.000000  -0.000000
    26  H    0.000000   0.000000  -0.000000  -0.000000  -0.000000   0.000000
    27  H    0.000000   0.000000   0.000000  -0.000000  -0.000000  -0.000000
    28  H   -0.039144  -0.038003   0.000964  -0.000000  -0.000000  -0.000000
    29  H   -0.000000   0.000000  -0.000000  -0.000000  -0.000000   0.000000
    30  H   -0.000000   0.000000  -0.000000  -0.000000  -0.000000   0.000003
    31  H    0.356947   0.004914   0.005740   0.000000   0.000000   0.000000
    32  H    0.004506   0.346975   0.005468  -0.000019   0.000236   0.000321
    33  H    0.005769   0.005707   0.351600  -0.000185   0.000000  -0.000035
    34  H    0.000000   0.000005  -0.000014   0.372055  -0.000008  -0.042387
    35  H   -0.000000   0.000020  -0.000000   0.000040   0.396781   0.000668
    36  H   -0.001425   0.000033  -0.002121   0.000000  -0.000000  -0.000000
    37  H   -0.003283   0.000002   0.002816  -0.000000  -0.000000   0.000000
    38  H    0.003079   0.000004  -0.003140   0.000000   0.000000   0.000000
    39  H   -0.000000   0.000000   0.000000   0.000002  -0.000087   0.000848
    40  H   -0.000000   0.000000  -0.000000  -0.000008   0.000046  -0.000317
    41  H   -0.000000   0.000000  -0.000000   0.003225  -0.000092  -0.008001
              13         14         15         16         17         18
     1  C   -0.033085   0.000000  -0.000000   0.000000  -0.000000   0.000000
     2  C   -0.022050   0.000000   0.000000   0.000000   0.000002   0.000000
     3  C   -0.020633   0.000000   0.000000   0.000000   0.000002   0.000000
     4  C    0.000000  -0.013142  -0.004320  -0.000194   0.000000   0.006459
     5  C    0.538253   0.000000   0.000000  -0.000000   0.000034   0.000000
     6  C    0.538379  -0.000000   0.000000  -0.000000  -0.000061   0.000000
[...]
    41  H   -0.027354  -0.000033  -0.000004   0.003011   0.000004   0.315063
              25         26         27         28         29         30
     1  C    0.372305  -0.037218  -0.037424   0.000000   0.004054   0.004005
     2  C   -0.037046   0.371663   0.003849   0.000000  -0.035937   0.000184
     3  C   -0.037333   0.003877   0.371158   0.000000   0.000214  -0.037863
     4  C    0.000000   0.000000   0.000000   0.369489  -0.000000   0.000000
     5  C    0.003985  -0.035338   0.000556  -0.000000   0.370845   0.005230
     6  C    0.003956   0.000579  -0.034543  -0.000000   0.004866   0.367633
     7  C    0.000000   0.000000   0.000000  -0.033463  -0.000000   0.000000
     8  C    0.000000   0.000000   0.000000  -0.034411   0.000000   0.000000
     9  C    0.000000   0.000000   0.000000   0.000867   0.000000  -0.000000
    10  C    0.000000   0.000000  -0.000000  -0.000000   0.000002  -0.000000
    11  C   -0.000000  -0.000000  -0.000000  -0.000000  -0.000001   0.000000
    12  C   -0.000000  -0.000000   0.000000  -0.000000   0.000047   0.000000
    13  C    0.000504   0.003117   0.003303  -0.000000  -0.043933  -0.037998
    14  C    0.000000  -0.000000   0.000000   0.003060  -0.000000   0.000000
    15  C   -0.000000   0.000000  -0.000000   0.002849  -0.000000  -0.000000
    16  C    0.000000  -0.000000  -0.000000  -0.000003  -0.000001   0.000000
    17  C   -0.000000  -0.000000  -0.000000   0.000000   0.000225  -0.000005
    18  C    0.000000   0.000000   0.000000  -0.000153   0.000000   0.000000
    19  C    0.000007  -0.000144  -0.000137   0.000000  -0.007136  -0.007345
    20  N    0.000000   0.000000   0.000000   0.000001   0.000000   0.000000
    21  N    0.000000  -0.000000  -0.000000  -0.000008   0.000000  -0.000000
    22  N    0.000000  -0.000000  -0.000000  -0.000000  -0.000064   0.000001
    23  N   -0.000000   0.000000   0.000000  -0.000093   0.000000   0.000000
    24  N    0.000000   0.000000   0.000001  -0.000000   0.004821   0.000069
    25  H    0.504645  -0.003950  -0.004006   0.000000  -0.000130  -0.000128
    26  H   -0.003950   0.503454  -0.000133  -0.000000  -0.003953   0.000013
    27  H   -0.004006  -0.000133   0.503289   0.000000   0.000013  -0.003970
    28  H    0.000000  -0.000000   0.000000   0.498972   0.000000   0.000000
    29  H   -0.000130  -0.003953   0.000013   0.000000   0.512247  -0.000123
    30  H   -0.000128   0.000013  -0.003970   0.000000  -0.000123   0.508445
    31  H    0.000000   0.000000   0.000000  -0.003788  -0.000000   0.000000
    32  H   -0.000000   0.000000   0.000000  -0.003824  -0.000000  -0.000000
    33  H   -0.000000   0.000000  -0.000000   0.000013  -0.000000  -0.000000
    34  H    0.000000  -0.000000  -0.000000   0.000000   0.000000  -0.000000
    35  H   -0.000000   0.000000   0.000000   0.000000   0.000000  -0.000000
    36  H    0.000000   0.000000   0.000000   0.000001  -0.000000   0.000000
    37  H    0.000000   0.000000   0.000000  -0.000002  -0.000000   0.000000
    38  H    0.000000  -0.000000   0.000000   0.000002   0.000000   0.000000
    39  H   -0.000000   0.000002  -0.000004  -0.000000   0.000164   0.006181
    40  H   -0.000000  -0.000001   0.000002   0.000000   0.000745   0.000018
    41  H   -0.000000   0.000001   0.000000   0.000000   0.000205   0.000023
              31         32         33         34         35         36
     1  C    0.000000  -0.000000  -0.000000   0.000000  -0.000000   0.000000
     2  C    0.000000  -0.000000  -0.000000   0.000000  -0.000000   0.000000
     3  C    0.000000   0.000000   0.000000  -0.000000  -0.000000   0.000000
     4  C   -0.037604  -0.033652  -0.000155  -0.000000  -0.000000  -0.000084
     5  C    0.000000   0.000000   0.000000  -0.000000  -0.000000   0.000000
     6  C    0.000000   0.000000   0.000000   0.000000   0.000000   0.000000
     7  C    0.372011   0.003668   0.005046   0.000000  -0.000000  -0.002421
     8  C    0.004099   0.347387   0.005362   0.000003   0.000046   0.000021
     9  C    0.004901   0.004853   0.357827  -0.000006  -0.000000  -0.001381
    10  C    0.000000  -0.000042  -0.000132   0.378950   0.000030  -0.000000
    11  C   -0.000000   0.000185   0.000000  -0.000007   0.407579  -0.000000
    12  C    0.000000   0.000772   0.000015  -0.029258   0.000203   0.000000
    13  C   -0.000000  -0.000000  -0.000000   0.000000  -0.000001   0.000000
    14  C   -0.041354   0.000188  -0.036824  -0.000000   0.000000  -0.026316
    15  C    0.000347  -0.029182  -0.033705  -0.000058  -0.000002  -0.000159
    16  C   -0.000000   0.004859   0.000342   0.003350   0.004984  -0.000000
    17  C   -0.000000   0.000001  -0.000001  -0.001444   0.004149   0.000000
    18  C   -0.005694   0.000007  -0.006810  -0.000000   0.000000   0.372412
    19  C   -0.000000  -0.000000  -0.000000  -0.000017  -0.000003  -0.000000
    20  N    0.000000  -0.000144   0.019412  -0.042735   0.000002  -0.000000
    21  N    0.000000   0.023208  -0.000001  -0.000070  -0.061883   0.000000
    22  N    0.000000   0.000077   0.000000  -0.000034  -0.061016   0.000000
    23  N    0.000005  -0.012421  -0.013485   0.004466  -0.000081   0.000002
    24  N    0.000000   0.000000   0.000000   0.000715  -0.000107   0.000000
    25  H    0.000000  -0.000000  -0.000000   0.000000  -0.000000   0.000000
    26  H    0.000000   0.000000   0.000000  -0.000000   0.000000   0.000000
    27  H    0.000000   0.000000  -0.000000  -0.000000   0.000000   0.000000
    28  H   -0.003788  -0.003824   0.000013   0.000000   0.000000   0.000001
    29  H   -0.000000  -0.000000  -0.000000   0.000000   0.000000  -0.000000
    30  H    0.000000  -0.000000  -0.000000  -0.000000  -0.000000   0.000000
    31  H    0.514091  -0.000106  -0.000109  -0.000000  -0.000000   0.000671
    32  H   -0.000106   0.473879  -0.000100   0.000000  -0.000155  -0.000000
    33  H   -0.000109  -0.000100   0.493157  -0.000010  -0.000000   0.000227
    34  H   -0.000000   0.000000  -0.000010   0.446299  -0.000000   0.000000
    35  H   -0.000000  -0.000155  -0.000000  -0.000000   0.494828   0.000000
    36  H    0.000671  -0.000000   0.000227   0.000000   0.000000   0.511066
    37  H    0.002563  -0.000000   0.000047   0.000000   0.000000  -0.026326
    38  H    0.000032  -0.000000   0.004178   0.000000   0.000000  -0.024597
    39  H   -0.000000  -0.000000   0.000000  -0.000000  -0.000000   0.000000
    40  H   -0.000000  -0.000000  -0.000000   0.000000  -0.000014  -0.000000
    41  H   -0.000000  -0.000000   0.000000   0.000751   0.000004  -0.000000
              37         38         39         40         41
     1  C    0.000000   0.000000  -0.000006   0.000025  -0.000016
     2  C    0.000000  -0.000000  -0.000099  -0.000048  -0.000072
     3  C    0.000000   0.000000   0.000224  -0.000162  -0.000040
     4  C    0.000133  -0.000145  -0.000000   0.000000  -0.000000
     5  C    0.000000  -0.000000   0.005325  -0.004642   0.001541
     6  C    0.000000   0.000000  -0.002409   0.000755   0.000762
     7  C   -0.003110   0.003472  -0.000000  -0.000000  -0.000000
     8  C    0.000002  -0.000001   0.000000   0.000000   0.000000
     9  C    0.002177  -0.002255   0.000000  -0.000000   0.000000
    10  C   -0.000000   0.000000   0.000000  -0.000004   0.002945
    11  C   -0.000000  -0.000000  -0.000026   0.000101  -0.000095
    12  C    0.000000   0.000000  -0.000084   0.000770  -0.006093
    13  C    0.000000   0.000000  -0.041533  -0.024337   0.001661
    14  C   -0.029751  -0.032483   0.000000   0.000000   0.000000
    15  C   -0.000112   0.000291   0.000000  -0.000000  -0.000000
    16  C   -0.000000   0.000000   0.000006   0.000012   0.000107
    17  C    0.000000   0.000000  -0.000622  -0.004175  -0.019010
    18  C    0.375518   0.376287  -0.000000   0.000000   0.000000
    19  C   -0.000000   0.000000   0.384687   0.382821  -0.027354
    20  N   -0.000000  -0.000010  -0.000000   0.000000  -0.000033
    21  N    0.000000   0.000000  -0.000001   0.000020  -0.000004
    22  N    0.000000  -0.000000   0.001367   0.012347   0.003011
    23  N    0.000001  -0.000001  -0.000000   0.000000   0.000004
    24  N    0.000000  -0.000000  -0.043326  -0.044646   0.315063
    25  H    0.000000   0.000000  -0.000000  -0.000000  -0.000000
    26  H    0.000000  -0.000000   0.000002  -0.000001   0.000001
    27  H    0.000000   0.000000  -0.000004   0.000002   0.000000
    28  H   -0.000002   0.000002  -0.000000   0.000000   0.000000
    29  H   -0.000000   0.000000   0.000164   0.000745   0.000205
    30  H    0.000000   0.000000   0.006181   0.000018   0.000023
    31  H    0.002563   0.000032  -0.000000  -0.000000  -0.000000
    32  H   -0.000000  -0.000000  -0.000000  -0.000000  -0.000000
    33  H    0.000047   0.004178   0.000000  -0.000000   0.000000
    34  H    0.000000   0.000000  -0.000000   0.000000   0.000751
    35  H    0.000000   0.000000  -0.000000  -0.000014   0.000004
    36  H   -0.026326  -0.024597   0.000000  -0.000000  -0.000000
    37  H    0.512836  -0.024496   0.000000   0.000000   0.000000
    38  H   -0.024496   0.510335  -0.000000   0.000000  -0.000000
    39  H    0.000000  -0.000000   0.518644  -0.031386  -0.000090
    40  H    0.000000   0.000000  -0.031386   0.487116   0.003464
    41  H    0.000000  -0.000000  -0.000090   0.003464   0.317361
 Mulliken charges:
               1
     1  C   -0.193766
     2  C   -0.194914
     3  C   -0.192292
     4  C   -0.206968
     5  C   -0.209686
     6  C   -0.229806
     7  C   -0.219177
     8  C   -0.212813
     9  C   -0.252860
    10  C    0.030409
    11  C    0.184061
    12  C   -0.103942
    13  C    0.066886
    14  C    0.093469
    15  C    0.296619
    16  C    0.594720
    17  C    0.552178
    18  C   -0.562547
    19  C   -0.196086
    20  N   -0.309733
    21  N   -0.550233
    22  N   -0.586788
    23  N   -0.553764
    24  N   -0.698819
    25  H    0.197191
    26  H    0.198032
    27  H    0.198046
    28  H    0.200491
    29  H    0.192828
    30  H    0.195633
    31  H    0.189934
    32  H    0.220543
    33  H    0.205704
    34  H    0.239104
    35  H    0.211439
    36  H    0.196884
    37  H    0.190521
    38  H    0.189391
    39  H    0.202986
    40  H    0.221219
    41  H    0.405905
 Sum of Mulliken charges =  -0.00000
 Mulliken charges with hydrogens summed into heavy atoms:
               1
     1  C    0.003425
     2  C    0.003118
     3  C    0.005754
     4  C   -0.006476
     5  C   -0.016859
     6  C   -0.034173
     7  C   -0.029243
     8  C    0.007730
     9  C   -0.047156
    10  C    0.269513
    11  C    0.395499
    12  C   -0.103942
    13  C    0.066886
    14  C    0.093469
    15  C    0.296619
    16  C    0.594720
    17  C    0.552178
    18  C    0.014249
    19  C    0.228120
    20  N   -0.309733
    21  N   -0.550233
    22  N   -0.586788
    23  N   -0.553764
    24  N   -0.292914
 Electronic spatial extent (au):  <R**2>=          13097.5108
 Charge=             -0.0000 electrons
 Dipole moment (field-independent basis, Debye):
    X=             -3.6946    Y=             -2.4369    Z=              1.1094  Tot=              4.5628
 Quadrupole moment (field-independent basis, Debye-Ang):
   XX=           -108.4078   YY=           -134.7248   ZZ=           -136.0776
   XY=              5.1867   XZ=             -6.3880   YZ=              0.4323
 Traceless Quadrupole moment (field-independent basis, Debye-Ang):
   XX=             17.9956   YY=             -8.3214   ZZ=             -9.6742
   XY=              5.1867   XZ=             -6.3880   YZ=              0.4323
 Octapole moment (field-independent basis, Debye-Ang**2):
  XXX=             19.3730  YYY=              3.0212  ZZZ=              2.1417  XYY=             15.1174
  XXY=            -63.3153  XXZ=             16.9621  XZZ=            -40.8822  YZZ=             -4.9465
  YYZ=             -4.9258  XYZ=            -22.1240
 Hexadecapole moment (field-independent basis, Debye-Ang**3):
 XXXX=         -13744.8160 YYYY=          -1492.9337 ZZZZ=           -444.7873 XXXY=            240.7969
 XXXZ=           -274.2610 YYYX=             -1.1056 YYYZ=            -21.6379 ZZZX=             13.8196
 ZZZY=             20.0270 XXYY=          -2790.5529 XXZZ=          -2692.0798 YYZZ=           -332.2785
 XXYZ=             73.2757 YYXZ=             11.7729 ZZXY=             21.9268
 N-N= 1.795456198242D+03 E-N=-5.928253745598D+03  KE= 9.987492998436D+02
 No NMR shielding tensors so no spin-rotation constants.
 Leave Link  601 at Tue Jan 18 10:40:21 2022, MaxMem=  1073741824 cpu:               0.2 elap:               0.2
 (Enter /scratch/xp2042/Softs/Gaussian16-A03-AVX2_linux64/g16/l124.exe)
 SC-PCM: Using the SCF density.
 SC-PCM: The equilibrium contribution to the free energy is   -0.028698845 a.u.
 SC-PCM: The total energy including the PCM contribution is     -1007.636105190 a.u.
 SC-PCM: Erms=  0.93618D-07 Emax=  0.46532D-06 Qconv=  0.10000D-06
 SC-PCM: Convergence achieved in   8 iterations.
 SC-PCM: The reaction field is now self-consistent.
 Error on total polarization charges =  0.05001
 --------------------------------------------------------------------
 Self-consistent PCM results
 ===========================
 <psi(0)|   H    |psi(0)>                     (a.u.) =   -1007.612059
 <psi(0)|H+V(0)/2|psi(0)>                     (a.u.) =   -1007.632543
 <psi(0)|H+V(f)/2|psi(0)>                     (a.u.) =   -1007.640758
 <psi(f)|   H    |psi(f)>                     (a.u.) =   -1007.607406
 <psi(f)|H+V(f)/2|psi(f)>                     (a.u.) =   -1007.636105
 Total free energy in solution:
 - with all non electrostatic terms           (a.u.) =   -1007.628698
 --------------------------------------------------------------------
 (Unpolarized solute)-Solvent             (kcal/mol) =     -12.85
 (Polarized solute)-Solvent               (kcal/mol) =     -18.01
 Solute polarization                      (kcal/mol) =       2.92
 Total electrostatic                      (kcal/mol) =     -15.09
 --------------------------------------------------------------------
 SMD-CDS (non-electrostatic) energy       (kcal/mol) =       4.65
 Total non electrostatic                  (kcal/mol) =       4.65
 DeltaG (solv)                            (kcal/mol) =     -10.44
 --------------------------------------------------------------------
 Dipole moment (Debye):
 in vacuo    : X= -2.8033 Y= -1.6389 Z=  0.6166 Tot=  3.3052
 in solution : X= -3.6946 Y= -2.4369 Z=  1.1094 Tot=  4.5628
 --------------------------------------------------------------------
 Partition over spheres:
 Sphere  on Atom  Surface  Charge   GEl     GCav    GDR
    1      C1      12.40   0.037   -0.24    0.00    0.36
    2      C2      12.56   0.036   -0.24    0.00    0.36
    3      C3      12.53   0.037   -0.22    0.00    0.36
    4      C4      12.36   0.035   -0.47    0.00    0.36
    5      C5      11.11   0.036   -0.13    0.00    0.31
    6      C6      11.90   0.033   -0.20    0.00    0.34
    7      C7      11.96   0.040   -0.45    0.00    0.33
    8      C8      11.10   0.034   -0.48    0.00    0.33
    9      C9      10.32   0.036   -0.45    0.00    0.30
   10      C10     12.26  -0.021   -0.64    0.00    1.04
   11      C11     10.35  -0.019   -0.00    0.00    1.74
   12      C12      6.02   0.009   -0.06    0.00   -0.09
   13      C13      5.05   0.018   -0.06    0.00   -0.06
   14      C14      5.84   0.026   -0.26    0.00   -0.07
   15      C15      5.21   0.014   -0.18    0.00    0.22
   16      C16      5.01  -0.010    0.03    0.00    0.59
   17      C17      4.80  -0.010   -0.02    0.00    0.61
   18      C18     15.46   0.017   -0.01    0.00    0.82
   19      C19      7.33  -0.022   -0.17    0.00    0.40
   20      N20     15.82   0.136   -1.63    0.00   -0.79
   21      N21     14.80   0.125   -1.70    0.00   -1.54
   22      N22     15.41   0.144   -1.59    0.00   -1.67
   23      N23      6.04   0.003   -0.04    0.00   -0.52
   24      N24     11.14  -0.013   -0.71    0.00   -0.98
   25      H25      6.29  -0.046   -0.49    0.00    0.10
   26      H26      6.22  -0.046   -0.48    0.00    0.10
   27      H27      6.26  -0.047   -0.52    0.00    0.10
   28      H28      6.30  -0.048   -0.27    0.00    0.10
   29      H29      6.12  -0.045   -0.40    0.00    0.09
   30      H30      6.22  -0.045   -0.60    0.00    0.09
   31      H31      6.28  -0.044   -0.31    0.00    0.09
   32      H32      3.69  -0.024    0.09    0.00    0.06
   33      H33      4.97  -0.035   -0.02    0.00    0.07
   34      H34      6.25  -0.068   -1.18    0.00    0.09
   35      H35      6.27  -0.059   -0.29    0.00    0.10
   36      H36      6.31  -0.034   -0.17    0.00    0.10
   37      H37      6.47  -0.033   -0.20    0.00    0.09
   38      H38      6.25  -0.033   -0.17    0.00    0.09
   39      H39      6.26  -0.041   -0.49    0.00    0.09
   40      H40      5.01  -0.035   -0.13    0.00    0.07
   41      H41      4.85  -0.090   -2.45    0.00    0.49
 --------------------------------------------------------------------
 After PCM corrections, the energy is  -1007.62869810     a.u.
 --------------------------------------------------------------------
 Leave Link  124 at Tue Jan 18 10:40:23 2022, MaxMem=  1073741824 cpu:               2.0 elap:               2.1
 (Enter /scratch/xp2042/Softs/Gaussian16-A03-AVX2_linux64/g16/l9999.exe)
 1\1\GINC-CS043\SP\RM062X\6-31G(d)\C19H17N5\XP2042\18-Jan-2022\0\\#p M0
 62X/6-31G* geom=checkpoint guess=read scrf=(smd,solvent=water,external
 iteration,1stVac)\\Title Card Required\\0,1\C,0,-4.8731145408,0.636411
 3208,-1.0299836038\C,0,-3.7234565751,0.5163426379,-1.8156460308\C,0,-4
 .753335542,0.9203593067,0.3302322025\C,0,7.7313184164,-1.8603858325,-0
 .4486702655\C,0,-2.4633617958,0.681639903,-1.2430844752\C,0,-3.4891702
 19,1.0808848578,0.9022810822\C,0,8.0565748072,-3.2036984928,-0.6191047
 655\C,0,6.4085482415,-1.4548766035,-0.2691410346\C,0,5.7244771567,-3.7
 803750849,-0.4362188758\C,0,1.9162358589,-2.4653478381,0.1127252523\C,
 0,3.1730981417,1.370604235,0.2305695069\C,0,2.063348798,-1.0547749903,
 0.1932846853\C,0,-2.3326047673,0.9673946033,0.1236987605\C,0,7.0508220
 337,-4.1801689409,-0.6113915264\C,0,5.4023770383,-2.4273798422,-0.2646
 473256\C,0,3.4477735442,-0.8307577234,0.0577866865\C,0,1.2575457376,0.
 1023036251,0.3618637698\C,0,7.3941297483,-5.6440005532,-0.7694013986\C
 ,0,-0.9647383068,1.1660476067,0.74378925\N,0,3.0818447843,-3.057198807
 2,-0.05297803\N,0,4.0429013634,0.3776764024,0.0712554262\N,0,1.8384536
 256,1.3121728201,0.3805198714\N,0,4.0330501507,-2.067294991,-0.0887539
 557\N,0,-0.0919515534,0.0231568381,0.4903601885\H,0,-5.855222688,0.508
 1025595,-1.4769729098\H,0,-3.8096663895,0.2972841474,-2.876666197\H,0,
 -5.6417192475,1.0124008518,0.9493517202\H,0,8.5155638833,-1.1079778474
 ,-0.4572486904\H,0,-1.5706218654,0.588594762,-1.8565316956\H,0,-3.4001
 661208,1.2981233469,1.9644698162\H,0,9.0937366252,-3.4988900007,-0.760
 4935904\H,0,6.1554004145,-0.4111001189,-0.1411929746\H,0,4.9274273059,
 -4.5136918059,-0.4309958531\H,0,1.0211256262,-3.0726021955,0.166873678
 9\H,0,3.5958642686,2.3734467307,0.2472096932\H,0,7.7966810437,-6.06072
 14675,0.1634120239\H,0,8.1546614121,-5.7950629419,-1.543979018\H,0,6.5
 135420057,-6.2352016678,-1.0395843851\H,0,-1.0657655597,1.3433741791,1
 .8240582573\H,0,-0.4588985118,2.0417105676,0.3277139104\H,0,-0.5041083
 487,-0.8962235564,0.561730819\\Version=ES64L-G16RevA.03\State=1-A\HF=-
 1007.6361029\RMSD=5.083e-09\Dipole=-1.7361471,-0.3963989,0.2263396\Qua
 drupole=13.7700306,-6.9613354,-6.8086953,-3.5376314,-3.6617625,1.97398
 72\PG=C01 [X(C19H17N5)]\\@


 MY GROUP MEETINGS AREN'T VERY STRUCTURED.
     -- PROF. M. S. GORDON, OCT. 5, 1984
 Job cpu time:       0 days  0 hours 42 minutes 11.7 seconds.
 Elapsed time:       0 days  0 hours 42 minutes 21.6 seconds.
 File lengths (MBytes):  RWF=    272 Int=      0 D2E=      0 Chk=     15 Scr=      1
 Normal termination of Gaussian 16 at Tue Jan 18 10:40:23 2022.
